/*--------------------------------*- C++ -*----------------------------------*\
| =========                 |                                                 |
| \\      /  F ield         | OpenFOAM: The Open Source CFD Toolbox           |
|  \\    /   O peration     | Version:  v2106                                 |
|   \\  /    A nd           | Website:  www.openfoam.com                      |
|    \\/     M anipulation  |                                                 |
\*---------------------------------------------------------------------------*/
FoamFile
{
    version     2.0;
    format      ascii;
    arch        "LSB;label=32;scalar=64";
    class       volScalarField;
    location    "2";
    object      k;
}
// * * * * * * * * * * * * * * * * * * * * * * * * * * * * * * * * * * * * * //

dimensions      [0 2 -2 0 0 0 0];

internalField   nonuniform List<scalar> 
29678
(
0.000126934
0.000169345
0.000191507
0.000201868
0.000207685
0.000211539
0.000214281
0.000216416
0.000217988
0.000219198
0.000220219
0.000221144
0.000222033
0.000222852
0.00022385
0.000224833
0.000225775
0.000226666
0.000227415
0.000227987
0.000228405
0.00022871
0.000228904
0.000229057
0.000229124
0.000229178
0.000229111
0.000228996
0.000228878
0.000228788
0.000228665
0.000228503
0.000228321
0.00022813
0.000227934
0.000227728
0.000227489
0.000227179
0.000226822
0.000226464
0.000226141
0.000225917
0.000225837
0.000225906
0.000226167
0.000226614
0.000227157
0.000227763
0.000228474
0.000229322
0.000230321
0.000231346
0.000232394
0.000233831
0.00023435
0.000234499
0.000234672
0.000234986
0.000235487
0.000236205
0.000237169
0.000238407
0.000239827
0.000241252
0.0002424
0.000243356
0.000243171
0.000238255
0.000236623
0.00023744
0.000237951
0.000235348
0.000234475
0.000236011
0.000238266
0.000239953
0.000240638
0.000240123
0.000236275
0.000234623
0.000237024
0.000240245
0.000239887
0.000238596
0.00023991
0.00024127
0.000239741
0.000238135
0.000236466
0.000235671
0.000235776
0.000236888
0.000242256
0.000251892
0.00026172
0.000285821
0.00032648
0.000393538
0.000418661
0.000403913
0.000361166
0.000323369
0.000296824
0.000276066
0.000260023
0.000247609
0.000237433
0.000229352
0.000223083
0.000218897
0.000127066
0.000169355
0.000191825
0.00020247
0.000208545
0.000212491
0.000215329
0.000217329
0.000218744
0.000219866
0.000220835
0.000221728
0.000222595
0.00022348
0.000224373
0.000225246
0.000226084
0.000226882
0.000227641
0.000228332
0.000228861
0.000229271
0.000229563
0.000229797
0.000229935
0.000230043
0.000230029
0.000229974
0.0002299
0.000229839
0.00022974
0.000229603
0.000229445
0.000229274
0.000229093
0.000228898
0.000228676
0.0002284
0.000228086
0.000227775
0.000227507
0.000227338
0.000227311
0.000227437
0.000227738
0.000228197
0.000228756
0.000229392
0.000230116
0.000230922
0.000231763
0.00023263
0.00023359
0.000234325
0.000234337
0.000234254
0.000234381
0.00023467
0.000235131
0.000235786
0.000236652
0.000237768
0.000238866
0.000239779
0.000240539
0.000240714
0.00023854
0.000235584
0.00023415
0.000235063
0.000235049
0.000233088
0.000232026
0.000232742
0.000234191
0.000235116
0.000234257
0.000231769
0.000230407
0.000230009
0.000230763
0.00023372
0.00023522
0.000235598
0.000237372
0.000238448
0.000236793
0.000235815
0.000234775
0.000234275
0.00023452
0.000235533
0.00023839
0.000244301
0.000254706
0.000280901
0.000322423
0.000383328
0.00042066
0.000419535
0.000382265
0.000339251
0.000307239
0.000282808
0.000263046
0.000248064
0.000236866
0.000228948
0.000223264
0.000219187
0.000127242
0.000169357
0.000192143
0.000202947
0.000209078
0.000212981
0.000215762
0.000217688
0.000219052
0.000220134
0.000221071
0.000221934
0.000222762
0.000223572
0.000224367
0.000225147
0.00022591
0.000226655
0.000227379
0.00022808
0.00022874
0.00022927
0.000229685
0.000230004
0.000230235
0.000230396
0.000230481
0.000230509
0.0002305
0.000230467
0.000230404
0.000230312
0.000230198
0.000230066
0.000229919
0.000229755
0.000229568
0.000229353
0.000229122
0.000228894
0.000228695
0.000228556
0.000228509
0.000228571
0.000228756
0.000229063
0.000229465
0.000229937
0.000230475
0.000231082
0.000231761
0.000232473
0.000232972
0.000233055
0.000232986
0.000233012
0.000233149
0.000233407
0.000233781
0.000234263
0.00023483
0.000235449
0.000236068
0.00023664
0.00023713
0.00023737
0.000236179
0.000234305
0.000233323
0.000233173
0.000232961
0.000232169
0.000231563
0.000231442
0.000231382
0.000231175
0.000230726
0.000229633
0.000229051
0.000229239
0.000230232
0.000231825
0.000233025
0.000234097
0.000235186
0.000235969
0.000235415
0.000234856
0.000234466
0.00023416
0.000234482
0.000235644
0.000237966
0.000242547
0.000251089
0.000273516
0.000319509
0.000392613
0.000448887
0.000450008
0.000400464
0.000351879
0.000317194
0.000291394
0.000269738
0.000252545
0.000239489
0.000230286
0.000223965
0.000219482
0.000127477
0.000169416
0.000192529
0.000203465
0.000209602
0.000213443
0.000216143
0.000217997
0.000219312
0.000220356
0.000221259
0.000222086
0.000222877
0.000223651
0.000224417
0.000225174
0.000225917
0.000226643
0.000227349
0.000228036
0.000228702
0.000229335
0.000229849
0.000230256
0.000230569
0.000230803
0.000230965
0.000231068
0.000231127
0.00023115
0.000231139
0.000231097
0.000231027
0.000230934
0.000230821
0.000230688
0.000230535
0.000230363
0.000230181
0.000230002
0.000229846
0.000229739
0.000229704
0.000229759
0.000229914
0.000230165
0.000230494
0.00023088
0.000231305
0.000231747
0.000232162
0.000232484
0.000232667
0.000232673
0.000232509
0.000232445
0.000232529
0.000232767
0.000233149
0.000233661
0.000234281
0.000234973
0.000235669
0.000236257
0.000236571
0.000236343
0.000235332
0.000234226
0.000233621
0.000233461
0.000233185
0.000232582
0.000232117
0.000231958
0.000231867
0.000231586
0.000230968
0.000230047
0.000229653
0.000229939
0.000230778
0.000232233
0.000233484
0.000234492
0.000235416
0.000235996
0.000235682
0.00023547
0.000235432
0.000235612
0.000236338
0.000237834
0.000240265
0.000244376
0.000251385
0.000267874
0.000309603
0.000377261
0.00042606
0.000428581
0.000410382
0.000358128
0.000323546
0.000298293
0.00027661
0.000258316
0.000243774
0.000233104
0.000225574
0.000220167
0.000127764
0.000169531
0.000192926
0.000204
0.000210148
0.000213938
0.000216563
0.000218344
0.000219608
0.000220613
0.000221483
0.000222282
0.000223044
0.000223785
0.000224514
0.000225232
0.00022594
0.000226638
0.000227323
0.000227997
0.000228656
0.000229299
0.000229859
0.000230329
0.000230718
0.000231034
0.000231284
0.000231476
0.00023162
0.000231721
0.000231784
0.000231813
0.000231811
0.000231781
0.000231727
0.000231651
0.000231554
0.000231442
0.00023132
0.000231202
0.000231101
0.000231036
0.000231026
0.000231083
0.000231214
0.000231415
0.000231675
0.000231975
0.000232296
0.000232617
0.00023291
0.000233142
0.000233266
0.000233246
0.000233127
0.000233063
0.000233124
0.000233305
0.000233596
0.000233979
0.000234425
0.000234896
0.000235338
0.00023568
0.000235836
0.000235707
0.000235223
0.000234604
0.000234104
0.000233735
0.000233349
0.00023289
0.000232459
0.0002321
0.000231763
0.000231399
0.000230997
0.000230624
0.000230537
0.00023082
0.000231429
0.000232309
0.000233199
0.000234004
0.000234707
0.000235232
0.000235473
0.000235756
0.000236187
0.000236859
0.000237976
0.000239759
0.000242418
0.000246343
0.000253047
0.000268015
0.000306925
0.000370096
0.000410306
0.000411263
0.000415499
0.000360526
0.000325598
0.00030197
0.000281585
0.000263165
0.000247594
0.000235642
0.000227026
0.000220805
0.000128097
0.000169696
0.000193322
0.000204529
0.000210696
0.00021445
0.00021701
0.000218721
0.000219936
0.000220904
0.000221745
0.000222519
0.000223259
0.000223981
0.000224694
0.000225402
0.000226103
0.000226797
0.000227483
0.000228158
0.000228822
0.000229473
0.000230109
0.000230696
0.000231186
0.000231592
0.000231925
0.000232195
0.000232409
0.000232576
0.0002327
0.000232786
0.000232838
0.000232861
0.000232856
0.000232829
0.000232781
0.000232719
0.000232649
0.000232581
0.000232526
0.000232497
0.000232509
0.00023257
0.000232685
0.000232852
0.000233063
0.000233301
0.000233552
0.000233796
0.00023401
0.000234168
0.000234242
0.000234228
0.000234167
0.000234136
0.000234183
0.000234323
0.000234554
0.000234865
0.000235234
0.000235629
0.000236003
0.000236289
0.000236408
0.000236292
0.000235938
0.000235492
0.000235087
0.00023473
0.000234355
0.00023394
0.000233541
0.000233194
0.000232876
0.000232558
0.000232239
0.000231974
0.000231908
0.000232118
0.000232605
0.000233329
0.000234116
0.000234859
0.000235516
0.00023605
0.000236438
0.000236878
0.000237496
0.000238382
0.000239663
0.000241478
0.00024402
0.000247321
0.000253037
0.000264831
0.000297413
0.000356931
0.00039148
0.000392453
0.000414288
0.00035967
0.00032366
0.000302244
0.000284287
0.000266981
0.000251213
0.000238388
0.000228759
0.000221626
0.000128469
0.0001699
0.000193708
0.000205039
0.00021123
0.000214961
0.000217468
0.000219119
0.00022029
0.000221225
0.00022204
0.000222794
0.000223516
0.000224224
0.000224925
0.000225621
0.000226314
0.000227002
0.000227685
0.00022836
0.000229027
0.000229684
0.00023033
0.000230959
0.000231509
0.000231986
0.000232397
0.000232746
0.000233042
0.000233288
0.000233491
0.000233653
0.000233779
0.000233873
0.000233937
0.000233976
0.000233995
0.000233996
0.000233988
0.000233978
0.000233975
0.000233989
0.00023403
0.000234105
0.000234218
0.000234366
0.000234544
0.00023474
0.00023494
0.000235131
0.000235295
0.000235417
0.000235485
0.000235503
0.000235494
0.000235501
0.000235557
0.000235677
0.000235862
0.000236099
0.000236365
0.000236631
0.000236857
0.000237003
0.000237032
0.000236916
0.000236655
0.00023631
0.000235941
0.000235562
0.000235163
0.000234745
0.00023433
0.000233939
0.00023358
0.000233262
0.000233001
0.000232834
0.000232817
0.000232988
0.000233351
0.000233876
0.000234482
0.0002351
0.000235697
0.000236266
0.000236827
0.000237477
0.000238308
0.000239399
0.000240846
0.000242745
0.000245333
0.000248375
0.000253731
0.000263775
0.00029079
0.00033995
0.000363799
0.000364582
0.000406702
0.000357827
0.000318921
0.00029959
0.000284571
0.000269301
0.000254114
0.000240896
0.000230475
0.000222507
0.000128874
0.000170132
0.00019408
0.000205523
0.000211742
0.000215461
0.000217928
0.000219529
0.000220664
0.000221573
0.000222367
0.000223105
0.000223816
0.000224515
0.000225209
0.000225901
0.000226593
0.000227284
0.000227971
0.000228654
0.000229331
0.000230001
0.000230663
0.000231316
0.000231955
0.000232527
0.000233031
0.000233471
0.000233854
0.000234185
0.000234467
0.000234707
0.000234906
0.00023507
0.000235202
0.000235307
0.000235387
0.000235449
0.000235497
0.000235539
0.000235582
0.000235633
0.0002357
0.000235789
0.000235901
0.000236036
0.000236188
0.000236351
0.000236513
0.000236663
0.000236791
0.000236886
0.000236945
0.00023697
0.000236979
0.000236999
0.000237052
0.000237147
0.000237284
0.000237455
0.000237645
0.000237832
0.000237986
0.000238074
0.000238067
0.000237945
0.000237716
0.000237415
0.000237075
0.00023671
0.000236322
0.000235918
0.000235513
0.000235127
0.000234771
0.000234461
0.000234213
0.000234055
0.000234024
0.000234151
0.000234442
0.000234877
0.000235401
0.000235961
0.000236531
0.000237109
0.000237725
0.000238445
0.000239342
0.000240488
0.000241946
0.000243748
0.000246124
0.000248755
0.000253577
0.000262027
0.000284246
0.000323599
0.000342395
0.000343109
0.000395167
0.000356736
0.000312998
0.000294987
0.00028285
0.000270125
0.0002562
0.000243143
0.000232215
0.000223489
0.000129305
0.000170382
0.000194435
0.000205976
0.000212225
0.000215942
0.000218382
0.000219946
0.000221055
0.000221944
0.000222725
0.000223452
0.000224156
0.000224851
0.000225544
0.000226238
0.000226934
0.000227631
0.000228327
0.000229022
0.000229714
0.000230401
0.000231082
0.000231756
0.000232421
0.000233075
0.000233667
0.000234199
0.000234672
0.000235092
0.000235463
0.000235787
0.000236069
0.000236312
0.00023652
0.000236697
0.000236848
0.000236975
0.000237085
0.000237183
0.000237275
0.000237367
0.000237464
0.000237572
0.000237691
0.000237821
0.000237959
0.0002381
0.000238235
0.000238358
0.00023846
0.000238537
0.000238586
0.000238612
0.000238631
0.000238657
0.000238701
0.000238772
0.000238868
0.000238984
0.000239107
0.000239216
0.000239287
0.000239301
0.000239239
0.000239094
0.00023887
0.000238583
0.000238251
0.000237887
0.000237495
0.000237085
0.000236672
0.000236272
0.000235903
0.000235582
0.000235329
0.000235165
0.000235116
0.000235199
0.000235419
0.000235761
0.000236193
0.00023668
0.000237209
0.000237786
0.000238438
0.000239211
0.000240158
0.000241336
0.000242784
0.00024448
0.000246654
0.000248961
0.000253278
0.000260486
0.000278233
0.000307625
0.000324256
0.000324842
0.000382363
0.000355648
0.000307889
0.000289807
0.000280002
0.000269773
0.000257452
0.000245004
0.00023388
0.000224541
0.000129756
0.000170643
0.000194772
0.000206399
0.000212681
0.000216403
0.000218826
0.000220368
0.00022146
0.000222338
0.000223111
0.000223834
0.000224537
0.000225233
0.00022593
0.000226631
0.000227337
0.000228046
0.000228757
0.00022947
0.000230181
0.00023089
0.000231595
0.000232294
0.000232986
0.000233671
0.000234345
0.000234975
0.000235546
0.000236063
0.000236528
0.000236945
0.000237316
0.000237645
0.000237935
0.000238189
0.000238413
0.000238609
0.000238782
0.000238937
0.000239079
0.000239213
0.000239342
0.000239471
0.000239601
0.000239733
0.000239863
0.000239988
0.000240104
0.000240205
0.000240287
0.000240346
0.000240383
0.000240406
0.000240423
0.00024044
0.000240466
0.000240507
0.000240561
0.000240624
0.000240685
0.000240725
0.000240729
0.000240682
0.000240573
0.000240399
0.000240161
0.00023987
0.000239536
0.000239167
0.000238771
0.000238357
0.000237937
0.000237527
0.000237144
0.000236807
0.000236535
0.000236348
0.000236265
0.000236302
0.000236461
0.000236731
0.000237092
0.000237521
0.000238011
0.000238571
0.000239225
0.000240004
0.000240943
0.000242084
0.000243436
0.000244948
0.000246857
0.000248828
0.000252632
0.000259003
0.000273515
0.000294694
0.000309441
0.000310004
0.000371803
0.000352739
0.000305743
0.000285354
0.000276949
0.00026876
0.000258027
0.000246465
0.000235421
0.000225643
0.000130219
0.000170907
0.000195093
0.000206794
0.00021311
0.000216844
0.000219262
0.000220793
0.00022188
0.000222755
0.000223527
0.000224251
0.000224958
0.000225661
0.000226369
0.000227083
0.000227804
0.000228532
0.000229263
0.000229998
0.000230734
0.00023147
0.000232203
0.000232933
0.000233657
0.000234374
0.000235084
0.000235784
0.000236459
0.000237077
0.000237643
0.000238159
0.000238627
0.000239049
0.000239427
0.000239766
0.000240068
0.000240337
0.000240578
0.000240794
0.000240989
0.000241167
0.000241332
0.000241487
0.000241634
0.000241772
0.0002419
0.000242017
0.00024212
0.000242205
0.00024227
0.000242313
0.00024234
0.000242356
0.000242361
0.000242363
0.000242367
0.000242377
0.00024239
0.000242404
0.000242409
0.000242385
0.000242324
0.000242218
0.000242061
0.000241849
0.000241585
0.000241274
0.000240925
0.000240543
0.000240135
0.000239709
0.000239277
0.000238852
0.00023845
0.00023809
0.00023779
0.00023757
0.000237447
0.000237434
0.000237533
0.000237737
0.000238033
0.000238408
0.000238857
0.000239389
0.000240023
0.000240781
0.000241677
0.000242731
0.000243939
0.000245243
0.000246876
0.000248532
0.000251876
0.000257585
0.000269909
0.000286726
0.000299851
0.000300345
0.00036487
0.000351312
0.000304688
0.000282486
0.000274252
0.000267517
0.00025815
0.000247568
0.000236801
0.000226773
0.000130686
0.000171172
0.000195399
0.000207164
0.000213513
0.000217266
0.00021969
0.000221225
0.000222316
0.000223195
0.000223972
0.000224704
0.000225422
0.000226139
0.000226863
0.000227597
0.00022834
0.000229092
0.00022985
0.000230613
0.000231379
0.000232146
0.000232913
0.000233678
0.000234439
0.000235195
0.000235944
0.000236685
0.000237416
0.000238134
0.000238806
0.000239427
0.000239998
0.000240519
0.000240993
0.000241421
0.000241808
0.000242155
0.000242466
0.000242746
0.000242998
0.000243225
0.00024343
0.000243616
0.000243784
0.000243934
0.000244067
0.000244182
0.000244277
0.000244351
0.000244402
0.000244433
0.000244453
0.000244455
0.000244445
0.000244427
0.000244404
0.00024438
0.000244353
0.000244319
0.000244266
0.00024418
0.000244057
0.000243892
0.000243682
0.000243427
0.000243127
0.000242787
0.000242413
0.000242009
0.000241582
0.000241139
0.000240688
0.000240243
0.000239819
0.00023943
0.000239097
0.000238838
0.000238669
0.000238602
0.000238641
0.000238782
0.000239016
0.000239336
0.00023974
0.000240236
0.000240835
0.000241549
0.000242373
0.000243314
0.000244364
0.000245465
0.000246844
0.000248232
0.000251231
0.00025652
0.000267741
0.000283715
0.000295449
0.000295858
0.000361777
0.00035239
0.000304223
0.000281134
0.000271895
0.000266158
0.000257936
0.000248366
0.000238015
0.000227912
0.000131151
0.000171435
0.000195692
0.000207511
0.000213896
0.000217674
0.000220117
0.000221668
0.000222772
0.000223661
0.00022445
0.000225196
0.000225931
0.000226669
0.000227418
0.000228178
0.000228949
0.000229731
0.000230521
0.000231318
0.00023212
0.000232925
0.000233731
0.000234537
0.00023534
0.00023614
0.000236935
0.000237723
0.000238502
0.000239271
0.000240028
0.000240757
0.000241433
0.000242058
0.000242632
0.000243156
0.000243631
0.00024406
0.000244446
0.000244793
0.000245104
0.000245382
0.000245631
0.000245852
0.000246046
0.000246215
0.000246359
0.000246478
0.000246572
0.000246639
0.000246681
0.000246709
0.000246716
0.000246703
0.000246676
0.000246635
0.000246586
0.000246527
0.00024646
0.00024638
0.000246268
0.000246118
0.00024593
0.000245703
0.000245437
0.000245131
0.000244787
0.000244409
0.000244001
0.000243567
0.000243113
0.000242645
0.000242171
0.000241702
0.00024125
0.00024083
0.00024046
0.000240157
0.000239938
0.000239814
0.000239791
0.000239868
0.000240041
0.000240306
0.000240662
0.000241114
0.000241667
0.000242324
0.000243064
0.000243889
0.000244792
0.000245713
0.000246873
0.000248042
0.000250812
0.000255849
0.000266566
0.000283454
0.000294082
0.000294424
0.000361709
0.000356073
0.000304023
0.000280188
0.000269467
0.000264423
0.000256906
0.000248718
0.000239006
0.000229046
0.000131607
0.000171695
0.000195975
0.000207839
0.000214261
0.000218075
0.00022055
0.000222127
0.00022325
0.000224156
0.000224962
0.00022573
0.00022649
0.000227257
0.000228037
0.00022883
0.000229636
0.000230454
0.000231283
0.00023212
0.000232963
0.000233812
0.000234664
0.000235517
0.000236371
0.000237222
0.00023807
0.000238912
0.000239747
0.000240572
0.000241386
0.000242185
0.000242964
0.000243692
0.000244367
0.000244987
0.000245553
0.000246065
0.000246527
0.000246941
0.000247312
0.000247643
0.000247937
0.000248195
0.00024842
0.000248612
0.000248772
0.000248901
0.000248998
0.000249063
0.000249108
0.000249129
0.000249125
0.000249099
0.000249053
0.00024899
0.000248912
0.000248821
0.000248714
0.000248588
0.000248412
0.000248194
0.000247938
0.000247645
0.000247316
0.000246954
0.00024656
0.000246136
0.000245686
0.000245214
0.000244726
0.000244227
0.000243724
0.000243225
0.000242742
0.000242288
0.000241878
0.000241529
0.000241257
0.000241074
0.000240988
0.000241
0.000241111
0.000241319
0.000241623
0.000242027
0.00024253
0.000243127
0.000243788
0.000244513
0.000245295
0.000246066
0.000247055
0.000248037
0.000250595
0.00025534
0.000265916
0.000284314
0.000294257
0.000294546
0.000362762
0.000362059
0.000305112
0.00027849
0.000267209
0.000261652
0.000254572
0.000247626
0.000239233
0.000230137
0.000132046
0.000171955
0.000196252
0.000208154
0.000214617
0.000218476
0.000220996
0.000222608
0.000223756
0.000224683
0.000225514
0.000226312
0.000227105
0.000227909
0.000228726
0.000229559
0.000230407
0.000231268
0.000232141
0.000233025
0.000233917
0.000234816
0.000235721
0.00023663
0.00023754
0.000238451
0.000239361
0.000240267
0.000241166
0.000242057
0.000242937
0.000243803
0.000244652
0.000245477
0.000246248
0.000246963
0.000247617
0.000248211
0.000248747
0.000249226
0.000249654
0.000250034
0.00025037
0.000250665
0.000250919
0.000251135
0.000251314
0.000251454
0.000251557
0.000251628
0.000251676
0.000251691
0.000251677
0.000251636
0.000251572
0.000251485
0.000251378
0.000251252
0.000251105
0.000250919
0.000250676
0.000250387
0.000250059
0.000249697
0.000249304
0.000248882
0.000248432
0.000247957
0.000247461
0.000246946
0.000246418
0.000245881
0.000245343
0.000244811
0.000244293
0.000243801
0.00024335
0.000242954
0.000242628
0.000242385
0.000242234
0.00024218
0.000242227
0.000242375
0.000242626
0.00024298
0.000243432
0.000243974
0.000244571
0.000245225
0.00024592
0.000246578
0.000247438
0.000248281
0.000250715
0.000255212
0.000265766
0.000285284
0.000295001
0.00029527
0.000365502
0.000370881
0.000309238
0.000277811
0.000265633
0.000258943
0.000252161
0.00024557
0.000238115
0.000231063
0.000132463
0.000172218
0.000196528
0.000208461
0.000214972
0.00021889
0.000221463
0.000223116
0.000224292
0.000225248
0.000226113
0.000226948
0.000227782
0.000228629
0.000229492
0.000230371
0.000231267
0.000232178
0.000233103
0.00023404
0.000234989
0.000235947
0.000236912
0.000237885
0.000238862
0.000239842
0.000240824
0.000241803
0.000242779
0.000243748
0.000244706
0.000245649
0.000246574
0.000247475
0.000248343
0.000249148
0.000249888
0.000250562
0.000251169
0.000251711
0.000252192
0.000252617
0.00025299
0.000253315
0.000253594
0.00025383
0.000254023
0.000254172
0.000254279
0.00025436
0.000254402
0.000254407
0.000254378
0.000254317
0.000254226
0.000254108
0.000253964
0.000253795
0.0002536
0.00025334
0.000253017
0.000252647
0.000252242
0.00025181
0.000251355
0.000250877
0.000250375
0.000249852
0.000249309
0.000248749
0.000248178
0.000247601
0.000247024
0.000246453
0.000245898
0.000245367
0.000244872
0.000244428
0.000244048
0.000243745
0.000243529
0.000243409
0.000243391
0.000243477
0.000243671
0.000243973
0.000244377
0.000244874
0.000245428
0.000246039
0.000246679
0.000247263
0.000248029
0.000248787
0.00025118
0.000255533
0.000266062
0.00028604
0.00029563
0.000295946
0.000366722
0.000380011
0.000316091
0.000278425
0.000264536
0.000256444
0.000249789
0.000243262
0.000236633
0.000231549
0.000132852
0.000172493
0.000196812
0.00020877
0.000215338
0.000219328
0.00022196
0.000223657
0.000224866
0.000225858
0.000226764
0.000227645
0.000228529
0.000229426
0.000230341
0.000231274
0.000232225
0.000233193
0.000234177
0.000235175
0.000236188
0.000237212
0.000238248
0.000239294
0.000240349
0.00024141
0.000242475
0.000243543
0.000244609
0.000245669
0.00024672
0.000247755
0.000248769
0.000249756
0.000250711
0.00025161
0.000252439
0.000253193
0.000253872
0.000254477
0.000255011
0.000255479
0.000255887
0.000256239
0.000256539
0.000256789
0.00025699
0.000257141
0.000257255
0.00025733
0.000257359
0.000257344
0.000257288
0.000257192
0.000257061
0.000256898
0.000256704
0.000256482
0.000256226
0.000255872
0.00025545
0.000254984
0.00025449
0.000253979
0.000253455
0.000252917
0.000252363
0.000251793
0.000251206
0.000250604
0.000249992
0.000249374
0.000248756
0.000248146
0.000247551
0.000246979
0.000246441
0.000245949
0.000245515
0.000245153
0.000244873
0.000244687
0.000244601
0.000244623
0.000244758
0.000245006
0.000245365
0.000245826
0.000246354
0.000246944
0.000247558
0.000248106
0.000248826
0.000249567
0.000251996
0.000256287
0.000266716
0.000286572
0.000296022
0.000296428
0.000369847
0.000391917
0.000325165
0.000279876
0.000263651
0.000254211
0.000247547
0.000240932
0.00023492
0.000230646
0.000133207
0.000172789
0.000197113
0.000209091
0.000215729
0.000219802
0.000222494
0.000224236
0.000225485
0.00022652
0.000227476
0.000228411
0.000229352
0.000230308
0.000231282
0.000232276
0.000233288
0.00023432
0.00023537
0.000236437
0.000237522
0.000238623
0.000239739
0.00024087
0.000242014
0.00024317
0.000244336
0.000245508
0.000246682
0.000247853
0.000249015
0.000250161
0.000251284
0.000252375
0.000253428
0.000254432
0.000255359
0.000256204
0.000256963
0.000257636
0.000258227
0.000258739
0.00025918
0.000259558
0.000259876
0.000260137
0.000260343
0.000260494
0.000260613
0.000260677
0.000260687
0.000260644
0.00026055
0.000260409
0.000260224
0.00026
0.00025974
0.000259446
0.000259086
0.000258615
0.00025807
0.000257484
0.00025688
0.000256269
0.000255656
0.00025504
0.000254419
0.000253789
0.00025315
0.000252501
0.000251845
0.000251186
0.000250528
0.000249878
0.000249242
0.000248629
0.000248048
0.000247508
0.000247023
0.000246603
0.000246262
0.00024601
0.000245857
0.000245813
0.000245885
0.000246078
0.000246392
0.000246822
0.000247334
0.000247918
0.000248528
0.000249089
0.000249827
0.000250642
0.000253178
0.000257462
0.000267716
0.000286951
0.000296247
0.000296746
0.000373162
0.000409306
0.00033446
0.000281127
0.000262724
0.000252475
0.000245721
0.000239037
0.000233452
0.000229571
0.000133524
0.000173114
0.000197443
0.000209439
0.00021616
0.000220325
0.000223073
0.000224862
0.000226156
0.000227243
0.000228258
0.000229256
0.000230261
0.000231282
0.000232322
0.000233383
0.000234464
0.000235566
0.00023669
0.000237834
0.000239
0.000240187
0.000241395
0.000242625
0.000243874
0.000245143
0.000246429
0.000247727
0.000249035
0.000250346
0.000251655
0.000252952
0.000254228
0.000255471
0.000256668
0.000257806
0.000258866
0.000259826
0.000260682
0.000261432
0.000262074
0.000262618
0.000263074
0.000263456
0.000263774
0.000264032
0.000264231
0.000264392
0.000264501
0.000264549
0.000264532
0.00026445
0.000264306
0.000264103
0.000263846
0.000263542
0.000263196
0.000262808
0.000262304
0.000261676
0.000260973
0.000260236
0.000259491
0.000258753
0.000258025
0.000257306
0.000256593
0.000255881
0.000255169
0.000254458
0.000253746
0.000253037
0.000252334
0.000251641
0.000250963
0.000250308
0.000249684
0.000249098
0.000248563
0.000248088
0.000247687
0.000247372
0.000247153
0.000247043
0.000247051
0.000247186
0.000247451
0.000247847
0.000248347
0.000248935
0.000249565
0.000250191
0.000251019
0.000252001
0.000254706
0.000259031
0.000269044
0.000287189
0.000296371
0.000296984
0.000383977
0.000432605
0.000340226
0.000280982
0.000261823
0.000251412
0.000244672
0.000237959
0.000232617
0.000228801
0.000133796
0.000173477
0.000197815
0.000209833
0.000216651
0.00022091
0.000223703
0.000225543
0.000226889
0.000228038
0.00022912
0.000230189
0.000231265
0.000232358
0.00023347
0.000234603
0.000235759
0.000236938
0.000238142
0.000239371
0.000240628
0.000241913
0.000243227
0.000244571
0.000245946
0.000247351
0.000248786
0.000250248
0.00025174
0.000253264
0.000254824
0.000256415
0.000258017
0.000259597
0.000261112
0.000262523
0.0002638
0.000264927
0.000265896
0.000266696
0.000267315
0.000267775
0.000268112
0.000268365
0.000268566
0.000268732
0.000268871
0.000269001
0.000269076
0.000269087
0.000269027
0.00026889
0.000268679
0.000268394
0.000268044
0.000267636
0.000267177
0.000266666
0.000265967
0.000265135
0.000264232
0.000263306
0.000262389
0.000261493
0.000260621
0.00025977
0.000258936
0.000258115
0.000257305
0.000256507
0.000255719
0.000254943
0.000254182
0.000253437
0.000252712
0.000252011
0.000251341
0.000250709
0.000250125
0.000249597
0.00024914
0.000248763
0.000248482
0.000248306
0.00024825
0.000248323
0.000248535
0.000248891
0.000249373
0.000249972
0.000250642
0.000251381
0.000252363
0.00025359
0.000256501
0.000260945
0.000270647
0.000287255
0.000296445
0.000297211
0.000403976
0.00045811
0.000342062
0.000280483
0.000261637
0.000251353
0.000244618
0.000237855
0.000232484
0.000228546
0.000134017
0.000173885
0.000198241
0.000210295
0.00021722
0.00022157
0.000224397
0.00022629
0.000227696
0.000228915
0.000230073
0.000231219
0.000232373
0.000233542
0.00023473
0.000235941
0.000237176
0.000238437
0.000239728
0.000241051
0.00024241
0.000243806
0.000245244
0.000246725
0.000248253
0.000249832
0.00025147
0.000253189
0.000255033
0.000257064
0.000259339
0.000261869
0.000264585
0.000267339
0.000269943
0.000272229
0.000274093
0.000275498
0.000276447
0.000276958
0.000277056
0.000276798
0.000276297
0.000275704
0.000275162
0.000274754
0.000274546
0.000274448
0.000274377
0.000274288
0.000274152
0.00027395
0.000273668
0.000273303
0.000272857
0.000272334
0.000271744
0.000271051
0.000270118
0.000269041
0.000267901
0.000266754
0.000265631
0.000264546
0.000263498
0.000262483
0.000261498
0.000260537
0.0002596
0.000258685
0.000257795
0.00025693
0.00025609
0.000255278
0.000254493
0.000253738
0.000253017
0.000252335
0.0002517
0.00025112
0.000250607
0.000250173
0.00024983
0.000249592
0.000249471
0.000249482
0.000249636
0.000249944
0.000250399
0.000251007
0.000251726
0.000252608
0.000253786
0.000255311
0.000258438
0.000263127
0.000272455
0.000287168
0.000296476
0.000297365
0.000428201
0.000481286
0.000345782
0.000282459
0.000262897
0.000252544
0.000245615
0.00023859
0.000232808
0.000228755
0.000134181
0.000174348
0.000198739
0.00021085
0.000217891
0.000222318
0.000225167
0.000227112
0.000228588
0.000229886
0.000231127
0.000232357
0.000233592
0.000234841
0.000236108
0.000237398
0.000238715
0.000240064
0.000241448
0.000242875
0.000244348
0.000245874
0.000247458
0.000249109
0.000250838
0.000252672
0.000254683
0.000257026
0.000259973
0.000263877
0.000269033
0.000275484
0.000282879
0.000290509
0.000297517
0.000303176
0.000307089
0.000309209
0.000309691
0.000308701
0.000306347
0.000302764
0.000298278
0.000293461
0.000288988
0.00028546
0.000283127
0.00028161
0.000280643
0.000280012
0.000279565
0.000279204
0.000278868
0.000278519
0.000278076
0.000277509
0.000276828
0.000275932
0.000274754
0.000273419
0.000272024
0.000270633
0.000269279
0.000267972
0.000266715
0.000265501
0.000264327
0.000263192
0.000262092
0.000261031
0.000260008
0.000259025
0.000258083
0.000257181
0.000256318
0.000255495
0.000254712
0.000253972
0.000253282
0.000252647
0.000252079
0.000251587
0.000251184
0.000250884
0.000250701
0.000250648
0.00025074
0.000250994
0.000251411
0.000252021
0.000252786
0.000253814
0.000255194
0.00025704
0.00026037
0.000265474
0.000274334
0.000287045
0.000296554
0.000297384
0.000443837
0.00049467
0.00035737
0.000288596
0.000265947
0.000254664
0.000247249
0.000239777
0.000233338
0.000229128
0.000134283
0.000174874
0.000199325
0.000211524
0.000218685
0.000223169
0.000226027
0.000228022
0.000229576
0.000230962
0.000232293
0.00023361
0.000234928
0.000236256
0.000237601
0.000238971
0.000240372
0.000241812
0.000243298
0.000244839
0.000246445
0.000248126
0.000249895
0.000251774
0.00025382
0.000256194