/*--------------------------------*- C++ -*----------------------------------*\
| =========                 |                                                 |
| \\      /  F ield         | OpenFOAM: The Open Source CFD Toolbox           |
|  \\    /   O peration     | Version:  v2106                                 |
|   \\  /    A nd           | Website:  www.openfoam.com                      |
|    \\/     M anipulation  |                                                 |
\*---------------------------------------------------------------------------*/
FoamFile
{
    version     2.0;
    format      ascii;
    arch        "LSB;label=32;scalar=64";
    class       volScalarField;
    location    "2";
    object      nut;
}
// * * * * * * * * * * * * * * * * * * * * * * * * * * * * * * * * * * * * * //

dimensions      [0 2 -1 0 0 0 0];

internalField   nonuniform List<scalar> 
29678
(
7.68604e-06
0.000106491
0.000281049
0.000318491
0.000246056
0.000194019
0.000154923
0.000123244
9.65069e-05
7.3303e-05
5.26871e-05
3.44793e-05
1.58577e-05
1.57328e-05
3.49225e-05
5.38195e-05
6.92219e-05
8.26021e-05
9.58172e-05
0.000106962
0.00011885
0.000131066
0.000145036
0.000157336
0.000172723
0.000185047
0.000206991
0.000228014
0.000246656
0.000259112
0.000278022
0.000297707
0.00031491
0.000330832
0.000344042
0.000356863
0.000376709
0.00041668
0.000453519
0.000468074
0.000461815
0.000414863
0.000351707
0.000300002
0.000250011
0.000210226
0.000185441
0.000166952
0.000148907
0.00013031
0.00010545
8.08491e-05
7.18993e-06
8.58293e-06
0.000291612
0.000405892
0.000340446
0.000271984
0.00021949
0.000179986
0.000150367
0.000127834
0.000113227
0.00010455
9.82461e-05
0.00010248
0.000224979
0.000629921
0.000383138
0.000217845
0.000200456
0.000545927
0.000330213
0.000185949
0.000155101
0.000147548
0.000150269
0.00042149
0.000482937
0.00040556
0.000158614
0.000106716
0.000114779
0.000164028
0.0001826
0.000217222
0.00024964
0.000205491
0.000336081
0.000557561
0.000829202
0.000630593
0.000223016
0.00019474
0.000450604
0.00031368
0.000188101
4.83482e-05
3.36136e-05
4.50304e-05
6.96227e-05
5.93932e-05
6.56809e-05
5.36454e-05
5.53871e-05
4.114e-05
3.65642e-05
3.28208e-05
4.39119e-05
4.5197e-05
7.57296e-06
0.000104884
0.0002575
0.000215056
0.000175417
0.000143643
0.000118398
9.8187e-05
8.1892e-05
6.83894e-05
5.58702e-05
4.21647e-05
2.81006e-05
2.67886e-05
3.80987e-05
5.41928e-05
6.72692e-05
7.80253e-05
8.8254e-05
9.68035e-05
0.000105959
0.00011485
0.000125023
0.000133887
0.00014522
0.000154151
0.000169862
0.000183216
0.000195848
0.000204198
0.000215538
0.000226773
0.000235999
0.000244201
0.000250645
0.000256736
0.000263267
0.000273558
0.000281594
0.000281576
0.000272934
0.000253928
0.000229184
0.000204631
0.000180731
0.000161043
0.000146565
0.000135141
0.000125946
0.000120755
0.000121154
0.000114912
8.77802e-05
0.000185321
0.000583043
0.000451418
0.000289912
0.000222345
0.000181101
0.000150908
0.000127971
0.000109308
9.61932e-05
8.78713e-05
8.68369e-05
0.000115026
0.000194941
0.000497926
0.000545725
0.000168288
0.000185243
0.000559627
0.00041036
0.000174441
0.000124086
0.000113543
0.000155239
0.000511856
0.00074083
0.000339983
0.000188861
8.83497e-05
9.79881e-05
0.000139972
0.000147922
0.000171552
0.000197072
0.000169601
0.000280629
0.000334757
0.000466152
0.000438342
0.000202633
0.000129423
0.000121869
0.00011784
0.000121522
0.000130777
2.83099e-05
4.78511e-05
0.000115898
4.51917e-05
5.7252e-05
4.30592e-05
4.3388e-05
3.32038e-05
2.94798e-05
2.6461e-05
3.02596e-05
2.76015e-05
7.44402e-06
0.000103192
0.000216555
0.000190121
0.000162478
0.000137526
0.000115979
9.75317e-05
8.13321e-05
6.69586e-05
5.49271e-05
4.65353e-05
4.38093e-05
4.76664e-05
5.33345e-05
6.10919e-05
6.91907e-05
7.73164e-05
8.57745e-05
9.43837e-05
0.000103453
0.000112999
0.000123211
0.000133817
0.000145192
0.000157024
0.000170201
0.000183572
0.000196106
0.000207273
0.000217963
0.000227605
0.000235387
0.000241365
0.000245775
0.000249139
0.000252107
0.000254938
0.00025563
0.000252508
0.000245566
0.000234473
0.000219888
0.000203998
0.000187838
0.000172647
0.000159991
0.000149783
0.000141072
0.000132978
0.000125427
0.000128381
0.000198913
0.000557642
0.000685991
0.000431992
0.000308202
0.000244043
0.000204016
0.000176627
0.000157293
0.00014371
0.000134688
0.000128974
0.000124867
0.000127957
0.000180569
0.000337543
0.000322767
0.000243687
0.000238185
0.000289894
0.000252519
0.000198319
0.000181067
0.000180567
0.000197541
0.000334396
0.000311461
0.00021729
0.000159676
0.000135696
0.000146231
0.000158978
0.000168045
0.000180043
0.000204431
0.000212415
0.000250926
0.000286707
0.000321763
0.000331658
0.000225889
0.000149082
0.000121426
0.000109011
0.000129149
0.000133428
0.000135188
7.77916e-05
8.12057e-05
5.2044e-05
5.80518e-05
4.9513e-05
4.73115e-05
3.74351e-05
3.20854e-05
2.97364e-05
3.24063e-05
2.86442e-05
7.27731e-06
0.0001016
0.000183459
0.000169797
0.000151528
0.000132731
0.000115102
9.94986e-05
8.59917e-05
7.46338e-05
6.52079e-05
5.69178e-05
4.96716e-05
4.63801e-05
5.05054e-05
5.74075e-05
6.51005e-05
7.29485e-05
8.09476e-05
8.89718e-05
9.71831e-05
0.000105601
0.000114302
0.000123211
0.000132534
0.000142178
0.000152426
0.000162769
0.000172737
0.000182083
0.000190982
0.000199245
0.000206526
0.000212727
0.000217868
0.000222041
0.000225374
0.000227877
0.000228864
0.000227445
0.000223099
0.00021544
0.000204873
0.000192815
0.000180616
0.00016956
0.000160766
0.000154755
0.000152085
0.000154556
0.00016871
0.000205315
0.000278792
0.000555531
0.00111508
0.000583927
0.00034298
0.000252726
0.000205081
0.000174841
0.000154158
0.000139897
0.000131245
0.000128427
0.000133272
0.000153898
0.000209407
0.000267284
0.000258681
0.000225233
0.000225236
0.000243767
0.000225503
0.000193512
0.000176443
0.000177473
0.000203573
0.000269575
0.000254003
0.000210419
0.0001761
0.000144732
0.000142998
0.000152619
0.00016166
0.000172383
0.000190509
0.000199068
0.00022223
0.000238391
0.000245671
0.000238491
0.000203056
0.000161673
0.00013833
0.000130964
0.00017495
0.000235863
0.000145542
7.1944e-05
7.79622e-05
7.33242e-05
6.52957e-05
5.73447e-05
5.19391e-05
4.29137e-05
3.57004e-05
3.12381e-05
3.09763e-05
2.57077e-05
7.08518e-06
0.000100213
0.000161279
0.000154266
0.000142073
0.000128108
0.000114018
0.000101002
8.94719e-05
7.95956e-05
7.14539e-05
6.54202e-05
6.22575e-05
6.27221e-05
6.64018e-05
7.13751e-05
7.68076e-05
8.2483e-05
8.84232e-05
9.46206e-05
0.000101113
0.000107915
0.000115014
0.000122385
0.000130059
0.000137998
0.000146179
0.000154368
0.000162312
0.000169856
0.000176949
0.000183471
0.000189259
0.000194238
0.000198388
0.000201711
0.0002042
0.000205795
0.000206217
0.000205057
0.000202009
0.000196942
0.000190146
0.000182414
0.000174686
0.000167891
0.000162886
0.000160383
0.000161194
0.000166773
0.000179586
0.000205774
0.000266831
0.000396517
0.000492047
0.000401223
0.000307903
0.00025005
0.000213444
0.000189116
0.000172654
0.000161816
0.000155743
0.000154264
0.000158609
0.000171835
0.000197204
0.000220824
0.000226581
0.000223797
0.000224715
0.000225056
0.000216568
0.000205933
0.000200582
0.00020302
0.00021365
0.000224201
0.000213376
0.000195067
0.000179401
0.000168241
0.000167362
0.000172171
0.000179178
0.000188354
0.000199182
0.000206061
0.000215671
0.000220913
0.000219501
0.000210246
0.000188619
0.000161571
0.000134188
0.000122737
0.00016452
0.000272074
0.000324255
6.97404e-05
8.36617e-05
8.06826e-05
7.2271e-05
6.16243e-05
5.54216e-05
4.6927e-05
3.88177e-05
3.37368e-05
3.27019e-05
2.65428e-05
6.87674e-06
9.90472e-05
0.000145722
0.000142557
0.0001344
0.000124059
0.000112932
0.000102208
9.24601e-05
8.39821e-05
7.69093e-05
7.1363e-05
6.7524e-05
6.57308e-05
6.65195e-05
6.92067e-05
7.30637e-05
7.76421e-05
8.27176e-05
8.81597e-05
9.39104e-05
9.99361e-05
0.00010622
0.000112726
0.000119419
0.000126266
0.000133211
0.000140133
0.000146887
0.000153359
0.000159464
0.000165112
0.000170204
0.000174667
0.000178455
0.000181532
0.00018386
0.000185379
0.000185959
0.000185426
0.000183652
0.000180629
0.000176563
0.000171922
0.000167337
0.000163492
0.000161087
0.000160818
0.000163519
0.000170517
0.00018421
0.000209332
0.00025288
0.000310514
0.000341675
0.000318788
0.000276089
0.000238493
0.000209793
0.000188562
0.00017327
0.000162921
0.000157057
0.000155383
0.000159318
0.000170128
0.00018675
0.000200023
0.000204191
0.0002038
0.000204028
0.000203822
0.000199712
0.000193576
0.000189581
0.000190095
0.000194931
0.000200188
0.000197818
0.000189574
0.000179835
0.00017114
0.000168467
0.000170764
0.000175578
0.000181907
0.000189348
0.000195093
0.000200449
0.000202924
0.000201268
0.000195403
0.000183121
0.000170955
0.000149654
0.000143463
0.000169725
0.000258657
0.000298515
6.93657e-05
8.5687e-05
9.474e-05
8.01274e-05
6.40696e-05
5.83444e-05
5.04007e-05
4.20335e-05
3.64434e-05
3.43816e-05
2.72106e-05
6.6598e-06
9.81032e-05
0.000134597
0.000133796
0.000128368
0.000120693
0.000111939
0.000103164
9.49777e-05
8.77441e-05
8.1684e-05
7.69885e-05
7.39197e-05
7.27545e-05
7.34996e-05
7.56608e-05
7.87468e-05
8.2428e-05
8.65133e-05
9.09019e-05
9.5546e-05
0.000100419
0.000105501
0.00011077
0.000116174
0.000121674
0.000127213
0.000132711
0.000138073
0.000143217
0.000148072
0.000152569
0.000156645
0.000160245
0.000163329
0.000165863
0.000167812
0.000169137
0.000169778
0.000169665
0.00016876
0.000167097
0.000164835
0.000162284
0.000159877
0.000158121
0.000157564
0.00015879
0.000162481
0.000169542
0.000181202
0.000198863
0.000222811
0.000247933
0.00026151
0.000255672
0.000237991
0.000218208
0.000200704
0.000186785
0.000176552
0.00016987
0.000166463
0.000166351
0.000169723
0.000176461
0.000185563
0.000193305
0.00019779
0.00020021
0.000201797
0.000202224
0.000201002
0.00019908
0.00019786
0.00019796
0.000198749
0.000198339
0.000194895
0.000189678
0.000184686
0.000180926
0.000179838
0.000181433
0.000184786
0.00018902
0.000193381
0.000196715
0.000198979
0.000199251
0.000196804
0.000191758
0.000180084
0.000171558
0.000149471
0.000146085
0.000166078
0.000266371
0.000297478
7.36141e-05
9.32581e-05
0.000110573
8.30252e-05
6.38215e-05
5.92195e-05
5.21779e-05
4.46041e-05
3.9405e-05
3.71035e-05
2.90139e-05
6.44066e-06
9.73717e-05
0.000126557
0.000127295
0.000123756
0.000118027
0.000111115
0.000103928
9.70471e-05
9.08531e-05
8.55947e-05
8.14598e-05
7.86094e-05
7.71459e-05
7.70521e-05
7.81096e-05
8.00331e-05
8.25886e-05
8.56128e-05
8.89976e-05
9.2674e-05
9.65946e-05
0.000100723
0.000105029
0.000109477
0.000114004
0.000118557
0.000123077
0.0001275
0.000131764
0.000135813
0.000139594
0.000143059
0.000146168
0.000148885
0.000151182
0.000153034
0.000154417
0.000155305
0.000155678
0.000155537
0.000154936
0.000154001
0.000152951
0.000152093
0.000151794
0.000152461
0.000154531
0.000158472
0.000164804
0.000174047
0.000186462
0.000201303
0.000215536
0.000223727
0.000222572
0.000214333
0.000203185
0.000192032
0.000182258
0.00017446
0.000168932
0.000165518
0.000164733
0.000166728
0.000171295
0.000177162
0.000182368
0.000185855
0.000187951
0.000189191
0.000189584
0.000189035
0.000187964
0.000187087
0.000186823
0.000186963
0.000186718
0.00018523
0.000182648
0.000179781
0.000177595
0.00017697
0.000178117
0.00018064
0.000184009
0.000187656
0.000190866
0.000193344
0.000194528
0.000193913
0.000192117
0.000183993
0.000181387
0.000161132
0.000161399
0.000163187
0.000251385
0.000306006
8.2393e-05
0.000100984
0.00012407
8.00093e-05
6.2085e-05
5.86677e-05
5.29345e-05
4.7075e-05
4.27767e-05
4.05673e-05
3.14609e-05
6.22412e-06
9.68419e-05
0.000120734
0.000122523
0.000120324
0.000116021
0.00011051
0.000104568
9.87285e-05
9.33609e-05
8.87186e-05
8.49814e-05
8.22738e-05
8.06573e-05
8.01102e-05
8.05137e-05
8.16931e-05
8.34739e-05
8.5714e-05
8.83088e-05
9.11845e-05
9.4288e-05
9.75785e-05
0.000101021
0.000104584
0.000108229
0.000111895
0.000115535
0.000119102
0.000122552
0.000125843
0.000128938
0.000131803
0.00013441
0.000136733
0.000138754
0.000140458
0.000141834
0.000142873
0.000143577
0.000143966
0.000144095
0.000144063
0.000144029
0.00014421
0.000144864
0.00014628
0.000148758
0.000152592
0.000158046
0.000165277
0.000174138
0.00018385
0.000192559
0.000197774
0.00019821
0.000194578
0.000188641
0.000182092
0.000176081
0.000171288
0.000167943
0.000166033
0.000165953
0.000167633
0.000170738
0.000174555
0.00017816
0.000181034
0.000183192
0.000184767
0.000185761
0.000186189
0.000186244
0.000186192
0.000186162
0.000186049
0.000185594
0.000184619
0.000183329
0.000182184
0.000181635
0.00018204
0.000183462
0.000185625
0.000188151
0.000190714
0.000192978
0.000194777
0.000195716
0.000195451
0.000195233
0.000188911
0.000189857
0.000174356
0.000179325
0.000171091
0.000258228
0.000387487
9.19072e-05
0.000109825
0.00012897
7.58397e-05
5.99339e-05
5.80241e-05
5.34032e-05
4.99787e-05
4.6851e-05
4.51113e-05
3.47777e-05
6.01363e-06
9.65044e-05
0.00011657
0.000119098
0.000117868
0.000114613
0.000110149
0.000105146
0.000100095
9.53495e-05
9.11586e-05
8.76918e-05
8.50534e-05
8.32876e-05
8.23779e-05
8.22476e-05
8.27818e-05
8.38572e-05
8.53635e-05
8.72115e-05
8.93328e-05
9.16751e-05
9.41967e-05
9.68622e-05
9.96395e-05
0.000102497
0.000105401
0.000108303
0.00011116
0.000113943
0.000116619
0.000119163
0.000121551
0.000123763
0.000125784
0.000127602
0.000129208
0.000130598
0.000131775
0.000132747
0.00013354
0.000134202
0.00013481
0.00013548
0.000136364
0.000137642
0.00013951
0.000142163
0.000145774
0.000150458
0.000156208
0.000162804
0.00016964
0.000175571
0.000179547
0.000180873
0.000179719
0.000176937
0.000173472
0.0001701
0.000167356
0.000165188
0.000163999
0.000164063
0.00016533
0.000167562
0.000170306
0.000173037
0.000175415
0.000177349
0.000178851
0.000179927
0.000180607
0.000180998
0.000181232
0.00018139
0.000181446
0.00018131
0.000180931
0.000180424
0.000180044
0.000180074
0.000180742
0.000182114
0.000184075
0.000186438
0.000189009
0.000191601
0.000194117
0.000196334
0.000197874
0.00020056
0.000197858
0.000204276
0.000194568
0.000203917
0.000196069
0.000295578
0.000414107
0.000100518
0.000117696
0.000126532
7.6053e-05
5.87195e-05
5.9252e-05
5.47942e-05
5.42944e-05
5.20997e-05
5.10372e-05
3.90518e-05
5.81152e-06
9.63509e-05
0.000113697
0.000116757
0.000116236
0.00011375
0.000110045
0.000105712
0.00010122
9.6913e-05
9.30325e-05
8.9735e-05
8.71093e-05
8.51914e-05
8.39704e-05
8.33955e-05
8.3389e-05
8.38632e-05
8.47343e-05
8.59288e-05
8.73867e-05
8.90589e-05
9.09055e-05
9.28924e-05
9.49893e-05
9.71681e-05
9.94016e-05
0.000101663
0.000103923
0.00010614
0.000108298
0.000110376
0.000112361
0.000114238
0.000115999
0.000117637
0.00011915
0.000120539
0.000121808
0.000122971
0.00012405
0.000125085
0.000126136
0.000127285
0.000128636
0.000130312
0.000132443
0.00013515
0.000138526
0.000142606
0.000147334
0.000152543
0.000157653
0.000162201
0.000165585
0.000167388
0.000167678
0.000166852
0.000165441
0.000163955
0.000162793
0.000161489
0.000160986
0.000161333
0.000162489
0.000164287
0.00016645
0.000168673
0.000170733
0.000172528
0.000174024
0.000175218
0.00017613
0.000176818
0.000177351
0.000177773
0.000178088
0.000178284
0.000178381
0.000178479
0.000178746
0.000179355
0.000180431
0.000182004
0.000184019
0.000186382
0.000189013
0.000191846
0.000194925
0.000198115
0.00020118
0.000206499
0.000208016
0.000221374
0.000220078
0.000240808
0.00024392
0.000416035
0.00042573
0.000113021
0.000125139
0.000123208
8.00574e-05
5.97986e-05
6.28643e-05
5.80512e-05
6.08064e-05
5.90343e-05
5.88246e-05
4.44984e-05
5.61926e-06
9.63748e-05
0.000111874
0.000115324
0.000115323
0.000113386
0.000110198
0.000106304
0.000102172
9.8147e-05
9.44576e-05
9.1243e-05
8.85791e-05
8.64969e-05
8.49918e-05
8.40303e-05
8.35587e-05
8.35139e-05
8.38316e-05
8.44527e-05
8.53255e-05
8.64063e-05
8.76584e-05
8.90501e-05
9.05542e-05
9.21458e-05
9.38025e-05
9.55037e-05
9.72308e-05
9.89667e-05
0.000100683
0.000102367
0.000104009
0.000105601
0.000107139
0.000108622
0.00011005
0.000111425
0.000112756
0.000114054
0.00011534
0.000116642
0.000118004
0.000119484
0.000121153
0.000123093
0.000125386
0.000128104
0.000131294
0.000134954
0.000139074
0.000143331
0.000147542
0.000151416
0.000154539
0.000156709
0.00015793
0.000158396
0.000158412
0.000158303
0.000157997
0.000157528
0.000157566
0.000158173
0.000159322
0.000160907
0.000162761
0.000164697
0.000166568
0.000168279
0.000169784
0.000171064
0.000172132
0.00017302
0.000173774
0.000174428
0.000175001
0.00017551
0.000175997
0.000176542
0.000177259
0.00017826
0.000179622
0.00018137
0.00018349
0.000185957
0.000188775
0.000191954
0.000195678
0.000199919
0.000204588
0.000212571
0.000218326
0.000239035
0.00024921
0.000290562
0.000312819
0.000471971
0.00043493
0.000133997
0.000133709
0.000122932
8.64574e-05
6.41206e-05
6.83197e-05
6.37948e-05
6.9923e-05
6.8178e-05
6.90859e-05
5.13989e-05
5.43764e-06
9.6571e-05
0.000110952
0.000114691
0.000115064
0.000113492
0.000110608
0.000106954
0.000103017
9.91418e-05
9.55388e-05
9.23278e-05
8.95747e-05
8.73088e-05
8.55313e-05
8.42205e-05
8.33387e-05
8.28391e-05
8.2672e-05
8.27894e-05
8.31477e-05
8.37087e-05
8.44394e-05
8.53114e-05
8.63e-05
8.73839e-05
8.85445e-05
8.97656e-05
9.10336e-05
9.23372e-05
9.36676e-05
9.50134e-05
9.63603e-05
9.77068e-05
9.90522e-05
0.000100398
0.000101746
0.000103101
0.000104472
0.000105868
0.000107304
0.000108802
0.000110393
0.000112114
0.000114013
0.000116141
0.00011855
0.000121281
0.000124356
0.000127786
0.000131439
0.000135188
0.000138976
0.000142499
0.000145562
0.000148034
0.000149903
0.000151264
0.000152301
0.00015322
0.000153368
0.000153471
0.000153915
0.000154745
0.000155945
0.000157449
0.000159153
0.00016094
0.00016271
0.000164386
0.000165919
0.000167284
0.00016848
0.000169527
0.000170459
0.000171311
0.000172109
0.000172886
0.000173683
0.000174566
0.000175614
0.000176903
0.000178487
0.000180392
0.000182632
0.000185228
0.000188243
0.000191734
0.000196008
0.000201148
0.000207207
0.000217467
0.000226219
0.000251819
0.000271021
0.000335236
0.000372302
0.000476816
0.000437528
0.000175387
0.000143845
0.000127268
9.34199e-05
7.15681e-05
7.60567e-05
7.20083e-05
8.16929e-05
8.00689e-05
8.26454e-05
6.01592e-05
5.26702e-06
9.69359e-05
0.000110845
0.000114802
0.000115426
0.000114048
0.00011128
0.000107696
0.000103816
9.99755e-05
9.63617e-05
9.30785e-05
9.01859e-05
8.77134e-05
8.56664e-05
8.4031e-05
8.27794e-05
8.18759e-05
8.12809e-05
8.09551e-05
8.08616e-05
8.0967e-05
8.12421e-05
8.16613e-05
8.2203e-05
8.28484e-05
8.35821e-05
8.43913e-05
8.52662e-05
8.61996e-05
8.71871e-05
8.82265e-05
8.93161e-05
9.04476e-05
9.16233e-05
9.28468e-05
9.41232e-05
9.5458e-05
9.68583e-05
9.83324e-05
9.9891e-05
0.000101548
0.000103323
0.000105239
0.000107326
0.000109613
0.00011213
0.000114898
0.000117932
0.000121242
0.000124627
0.000128191
0.000131751
0.000135152
0.000138269
0.000141019
0.000143382
0.000145404
0.000147202
0.000148906
0.000149112
0.000149597
0.000150329
0.000151331
0.000152595
0.000154077
0.000155712
0.000157423
0.000159142
0.000160809
0.000162382
0.000163832
0.000165147
0.000166336
0.000167423
0.000168441
0.000169426
0.000170415
0.000171451
0.000172589
0.000173884
0.00017539
0.000177147
0.000179184
0.000181528
0.000184227
0.000187374
0.000191044
0.000195619
0.000201225
0.000207961
0.000219218
0.000228406
0.000254185
0.00027109
0.00033977
0.000361064
0.000388922
0.000434102
0.000262866
0.000155634
0.000137162
0.000101177
8.15261e-05
8.59672e-05
8.29303e-05
9.62151e-05
9.51546e-05
0.000100472
7.13659e-05
5.10743e-06
9.74695e-05
0.000111521
0.000115643
0.000116401
0.000115052
0.000112225
0.000108565
0.000104622
0.000100709
9.69917e-05
9.35643e-05
9.04846e-05
8.77818e-05
8.54633e-05
8.35193e-05
8.19283e-05
8.06613e-05
7.9686e-05
7.89691e-05
7.84788e-05
7.81858e-05
7.80637e-05
7.80899e-05
7.82447e-05
7.85118e-05
7.88781e-05
7.93335e-05
7.98711e-05
8.04867e-05
8.11795e-05
8.1951e-05
8.28052e-05
8.37468e-05
8.4774e-05
8.58932e-05
8.71116e-05
8.84359e-05
8.98722e-05
9.14263e-05
9.31041e-05
9.49127e-05
9.68609e-05
9.89606e-05
0.000101226
0.000103673
0.000106315
0.000109157
0.000112257
0.000115443
0.000118826
0.000122318
0.000125805
0.00012921
0.00013245
0.000135464
0.000138229
0.000140773
0.00014316
0.000144743
0.000145332
0.000146055
0.000146966
0.000148083
0.000149397
0.000150878
0.00015248
0.000154153
0.000155846
0.000157517
0.000159131
0.000160658
0.000162083
0.000163402
0.00016463
0.000165795
0.000166933
0.000168086
0.000169301
0.000170623
0.000172098
0.000173762
0.000175646
0.000177778
0.000180191
0.000182938
0.000186117
0.000189791
0.000194339
0.00019982
0.000206243
0.000216784
0.000223908
0.000244981
0.00025249
0.000306772
0.000300531
0.000258588
0.000427461
0.000372333
0.000177753
0.000157162
0.000110352
9.47706e-05
9.80065e-05
9.81331e-05
0.000113943
0.00011514
0.00012383
8.58116e-05
4.95874e-06
9.81754e-05
0.00011299
0.000117234
0.000118003
0.000116513
0.000113465
0.0001096
0.000105479
0.000101388
9.74774e-05
9.3839e-05
9.05277e-05
8.7571e-05
8.49759e-05
8.2734e-05
8.08269e-05
7.92298e-05
7.79145e-05
7.68517e-05
7.60131e-05
7.53722e-05
7.49052e-05
7.45911e-05
7.44122e-05
7.43536e-05
7.44041e-05
7.45554e-05
7.48028e-05
7.51448e-05
7.55836e-05
7.61246e-05
7.67763e-05
7.75497e-05
7.84551e-05
7.94967e-05
8.06848e-05
8.20269e-05
8.35277e-05
8.51892e-05
8.70113e-05
8.89932e-05
9.11339e-05
9.3434e-05
9.58958e-05
9.85235e-05
0.000101322
0.000104311
0.00010743
0.000110675
0.000114112
0.000117614
0.00012114
0.000124629
0.000128024
0.000131283
0.000134381
0.000137338
0.000140197
0.000141395
0.000142084
0.000142911
0.000143908
0.000145084
0.000146425
0.000147905
0.000149489
0.000151139
0.000152819
0.000154497
0.000156145
0.000157737
0.000159255
0.000160691
0.000162047
0.000163344
0.000164612
0.000165894
0.000167237
0.000168687
0.000170281
0.000172051
0.000174018
0.000176205
0.000178644
0.000181379
0.000184495
0.000188015
0.000192262
0.000197158
0.000202576
0.000211342
0.000215569
0.000230449
0.000229165
0.000266669
0.000247447
0.000201339
0.000327248
0.000310138
0.000218751
0.000189938
0.00012245
0.000111322
0.000112526
0.000118651
0.00013573
0.000142893
0.000156015
0.000104644
4.82071e-06
9.90606e-05
0.000115312
0.000119631
0.000120271
0.000118462
0.000115033
0.000110834
0.000106416
0.000102041
9.78537e-05
9.3942e-05
9.03577e-05
8.71244e-05
8.42463e-05
8.17143e-05
7.95105e-05
7.76116e-05
7.59913e-05
7.46224e-05
7.34787e-05
7.25352e-05
7.17697e-05
7.11625e-05
7.06967e-05
7.03586e-05
7.01381e-05
7.00281e-05
7.00257e-05
7.01317e-05
7.0352e-05
7.06971e-05
7.11822e-05
7.18254e-05
7.26464e-05
7.36571e-05
7.48664e-05
7.62819e-05
7.79049e-05
7.97315e-05
8.17538e-05
8.39612e-05
8.63418e-05
8.88848e-05
9.15811e-05
9.44242e-05
9.74105e-05
0.000100584
0.000103773
0.000107174
0.000110679
0.000114257
0.000117866
0.000121468
0.000125023
0.000128496
0.000131867
0.000135157
0.000138394
0.000138819
0.000139465
0.000140277
0.000141266
0.000142431
0.000143755
0.000145211
0.000146767
0.000148393
0.000150059
0.00015174
0.000153412
0.000155053
0.000156647
0.00015818
0.000159649
0.000161063
0.000162445
0.000163832
0.000165269
0.0001668
0.000168465
0.000170291
0.000172298
0.000174502
0.000176927
0.000179603
0.000182594
0.000185878
0.0001897
0.000193869
0.000198138
0.00020493
0.00020664
0.000216266
0.00020927
0.000234478
0.000212714
0.000174859
0.000253488
0.000218364
0.000295289
0.00023798
0.000140648
0.00012891
0.000130818
0.000145765
0.000165068
0.000182691
0.000202242
0.000129491
4.69305e-06
0.000100133
0.000118596
0.000122927
0.000123269
0.000120943
0.000116964
0.000112293
0.000107452
0.000102688
9.81421e-05
9.38991e-05
9.00036e-05
8.64729e-05
8.33062e-05
8.04911e-05
7.80079e-05
7.58325e-05
7.39385e-05
7.22994e-05
7.08893e-05
6.96841e-05
6.8662e-05
6.78037e-05
6.70929e-05
6.65163e-05
6.60641e-05
6.57302e-05
6.5513e-05
6.54169e-05
6.54536e-05
6.56421e-05
6.60078e-05
6.65788e-05
6.73821e-05
6.84386e-05
6.97544e-05
7.13329e-05
7.31687e-05
7.52493e-05
7.75561e-05
8.0067e-05
8.27579e-05
8.56055e-05
8.85897e-05
9.16942e-05
9.49405e-05
9.82174e-05
0.000101651
0.0001052
0.000108818
0.000112499
0.000116218
0.000119945
0.000123652
0.000127312
0.000130912
0.000134467
0.000136869
0.000137197
0.000137678
0.000138355
0.00013923
0.000140296
0.000141531
0.000142906
0.000144392
0.000145961
0.000147589
0.000149252
0.00015093
0.000152602
0.00015425
0.000155859
0.000157422
0.000158936
0.000160415
0.000161888
0.000163395
0.000164977
0.000166674
0.000168516
0.000170522
0.000172708
0.000175087
0.000177678
0.000180523
0.000183567
0.000186992
0.000190553
0.00019389
0.000198973
0.0001989
0.000204832
0.000194842
0.000212911
0.000192747
0.000165775
0.000203001
0.00017253
0.000304153
0.000279754
0.000163732
0.000150314
0.000156655
0.000181634
0.000206852
0.00024431
0.000271295
0.000164313
4.57546e-06
0.000101397
0.000123015
0.000127263
0.000127089
0.000124013
0.000119293
0.000113993
0.000108593
0.000103333
9.83509e-05
9.37224e-05
8.94817e-05
8.56362e-05
8.21774e-05
7.90871e-05
7.63414e-05
7.39133e-05
7.17749e-05
6.98985e-05
6.82577e-05
6.6828e-05
6.55873e-05
6.45163e-05
6.35983e-05
6.282e-05
6.21713e-05
6.1647e-05
6.12485e-05
6.09869e-05
6.08854e-05
6.09774e-05
6.13022e-05
6.18974e-05
6.2794e-05
6.40129e-05
6.55597e-05
6.74243e-05
6.95917e-05
7.20384e-05
7.47329e-05
7.764e-05
8.07228e-05
8.39446e-05
8.7273e-05
9.06892e-05
9.42004e-05
9.77001e-05
0.000101357
0.000105059
0.000108811
0.000112609
0.000116439
0.000120285
0.000124125
0.000127937
0.000131724
0.000135497
0.000136757
0.00013673
0.000136912
0.000137331
0.000137982
0.00013885
0.000139907
0.000141124
0.000142473
0.000143928
0.000145466
0.000147069
0.000148717
0.000150389
0.000152064
0.000153724
0.000155354
0.000156949
0.000158511
0.000160056
0.000161615
0.000163227
0.00016493
0.000166757
0.00016873
0.000170867
0.000173178
0.000175672
0.000178378
0.00018123
0.000184362
0.00018752
0.000190263
0.000194076
0.000193016
0.000196776
0.000185936
0.000200746
0.00018452
0.000169628
0.000174524
0.000148658
0.000286834
0.00029502
0.000185609
0.00019046
0.000195117
0.000240249
0.000261851
0.000341605
0.00037452
0.000214535
4.46762e-06
0.000102855
0.000128834
0.000132845
0.000131851
0.000127735
0.000122045
0.000115935
0.00010983
0.000103967
9.84734e-05
9.34108e-05
8.87964e-05
8.46236e-05
8.0873e-05
7.75176e-05
7.45272e-05
7.18704e-05
6.95157e-05
6.74333e-05
6.55951e-05
6.39756e-05
6.25518e-05
6.13034e-05
6.02132e-05
5.92669e-05
5.8455e-05
5.77748e-05
5.72366e-05
5.68675e-05
5.67117e-05
5.68226e-05
5.72519e-05
5.80372e-05
5.9197e-05
6.074e-05
6.26611e-05
6.49445e-05
6.75668e-05
7.04903e-05
7.36626e-05
7.7041e-05
8.05798e-05
8.42322e-05
8.79529e-05
9.17549e-05
9.54706e-05
9.93101e-05
0.000103156
0.000107012
0.000110887
0.000114791
0.000118722
0.00012267
0.000126618
0.000130548
0.000134482
0.000138435
0.000138093
0.000137575
0.000137335
0.000137379
0.000137696
0.000138261
0.00013904
0.000140005
0.000141127
0.000142389
0.00014377
0.000145253
0.000146819
0.000148445
0.000150109
0.000151786
0.000153456
0.000155104
0.000156726
0.000158327
0.000159926
0.000161553
0.000163245
0.000165035
0.000166952
0.000169015
0.000171238
0.000173632
0.000176218
0.000178934
0.000181888
0.000184823
0.000187332
0.000190388
0.000189161
0.00019204
0.000182178
0.00019608
0.000188204
0.000186013
0.000166794
0.000136031
0.000272604
0.000286039
0.000205258
0.000275408
0.00027028
0.000365737
0.000331874
0.000474537
0.000510208
0.000291074
4.36925e-06
0.0001045
0.000136442
0.000139956
0.000137702
0.00013217
0.000125229
0.000118097
0.000111132
0.00010456
9.84872e-05
9.29497e-05
8.79409e-05
8.34351e-05
7.9398e-05
7.57915e-05
7.25766e-05
6.97157e-05
6.71729e-05
6.4915e-05
6.29116e-05
6.11353e-05
5.95618e-05
5.81696e-05
5.69404e-05
5.586e-05
5.49223e-05
5.41378e-05
5.35421e-05
5.31975e-05
5.31789e-05
5.356e-05
5.44008e-05
5.57193e-05
5.74959e-05
5.96885e-05
6.22496e-05
6.51346e-05
6.83018e-05
7.17064e-05
7.52971e-05
7.9022e-05
8.28395e-05
8.67252e-05
9.06863e-05
9.46984e-05
9.87108e-05
0.00010283
0.000106889
0.0001109
0.000114897
0.000118915
0.000122966
0.000127039
0.000131113
0.000135176
0.000139258
0.000142309
0.000140942
0.000139851
0.000139097
0.000138668
0.000138546
0.000138701
0.000139097
0.000139701
0.000140493
0.000141461
0.000142595
0.000143877
0.000145291
0.000146813
0.000148415
0.000150068
0.000151742
0.000153413
0.000155068
0.000156702
0.000158323
0.000159953
0.000161622
0.000163362
0.000165204
0.000167175
0.000169295
0.000171581
0.00017406
0.000176681
0.000179548
0.000182403
0.000185004
0.000187827
0.000187267
0.000190288
0.000183107
0.000197488
0.000204263
0.000217613
0.000183668
0.000132622
0.00026089
0.000278332
0.000239379
0.000432887
0.000467414
0.000660763
0.000420553
0.000575984
0.000612443
0.000419093
4.28013e-06
0.000106317
0.000146404
0.000148973
0.000144807
0.000137359
0.00012883
0.00012043
0.000112443
0.000105062
9.83527e-05
9.2311e-05
8.68978e-05
8.20622e-05
7.7751e-05
7.39121e-05
7.04961e-05
6.74578e-05
6.47557e-05
6.23528e-05
6.02157e-05
5.8315e-05
5.66246e-05
5.51217e-05
5.37881e-05
5.26156e-05
5.16194e-05
5.08553e-05
5.04244e-05
5.04735e-05
5.11732e-05
5.26491e-05
5.49255e-05
5.79057e-05
6.14132e-05
6.52527e-05
6.92627e-05
7.33379e-05
7.7411e-05
8.14107e-05
8.52294e-05
8.87408e-05
9.18741e-05
9.46877e-05
9.75456e-05
0.000100518
0.000104071
0.000107878
0.000111834
0.000115842
0.000119897
0.000124039
0.0001283
0.000132688
0.000137089
0.000141456
0.000145822
0.000147239
0.000145267
0.0001436
0.0001423
0.000141348
0.000140712
0.000140357
0.000140254
0.000140377
0.000140718
0.000141275
0.000142047
0.000143028
0.000144202
0.000145544
0.000147022
0.000148598
0.000150233
0.000151893
0.000153551
0.000155192
0.000156815
0.000158432
0.000160062
0.00016174
0.000163495
0.000165358
0.000167358
0.000169523
0.00017189
0.000174433
0.000177268
0.000180151
0.000183069
0.000186148
0.000187003
0.000190937
0.000188027
0.000202502
0.000236356
0.000271933
0.000244496
0.000142295
0.000249134
0.000270481
0.000289831
0.000391811
0.000549166
0.000708817
0.000470652
0.000560971
0.000586743
0.000661116
4.20016e-06
0.000108283
0.000159538
0.000160377
0.000153322
0.000143296
0.000132772
0.000122835
0.000113671
0.000105396
9.80119e-05
9.14539e-05
8.56404e-05
8.04893e-05
7.59249e-05
7.18784e-05
6.82888e-05
6.51023e-05
6.22715e-05
5.9755e-05
5.75162e-05
5.55236e-05
5.37494e-05
5.21715e-05
5.07808e-05
4.96033e-05
4.87362e-05
4.83813e-05
4.88933e-05