/*--------------------------------*- C++ -*----------------------------------*\
| =========                 |                                                 |
| \\      /  F ield         | OpenFOAM: The Open Source CFD Toolbox           |
|  \\    /   O peration     | Version:  v2106                                 |
|   \\  /    A nd           | Website:  www.openfoam.com                      |
|    \\/     M anipulation  |                                                 |
\*---------------------------------------------------------------------------*/
FoamFile
{
    version     2.0;
    format      ascii;
    arch        "LSB;label=32;scalar=64";
    class       volScalarField;
    location    "2";
    object      omega;
}
// * * * * * * * * * * * * * * * * * * * * * * * * * * * * * * * * * * * * * //

dimensions      [0 0 -1 0 0 0 0];

internalField   nonuniform List<scalar> 
29678
(
6.8389
1.59023
0.6814
0.3961
0.274579
0.215734
0.187702
0.176024
0.172828
0.174809
0.181033
0.192409
0.213048
0.251488
0.272751
0.281774
0.285673
0.286913
0.285794
0.283242
0.279496
0.275206
0.270458
0.265929
0.261198
0.256848
0.252084
0.247401
0.243081
0.239275
0.235611
0.232017
0.228571
0.225304
0.222231
0.219313
0.216459
0.213543
0.210646
0.207901
0.205406
0.203329
0.20179
0.200815
0.200619
0.201283
0.202479
0.204107
0.206504
0.209941
0.214757
0.221521
0.294861
0.383345
0.360343
0.348152
0.337926
0.329534
0.322577
0.317146
0.313624
0.312526
0.313678
0.316301
0.319616
0.32753
0.401485
0.37823
0.351391
0.343593
0.340057
0.325299
0.325379
0.340264
0.357183
0.368922
0.377053
0.462333
0.422983
0.391813
0.396398
0.392604
0.356862
0.320582
0.310546
0.311177
0.315356
0.300396
0.281888
0.282078
0.284341
0.29838
0.371822
0.476321
0.560466
0.717045
0.970293
1.70029
1.90994
1.69743
1.32358
1.14126
0.956647
0.819803
0.683066
0.572055
0.449505
0.336477
0.23692
0.18168
6.84228
1.61469
0.695464
0.401464
0.277336
0.219475
0.192951
0.181776
0.17864
0.180601
0.186243
0.195478
0.210832
0.23321
0.249097
0.257641
0.262039
0.264303
0.265092
0.264972
0.263396
0.261056
0.258034
0.254956
0.251482
0.248167
0.244319
0.240546
0.236994
0.233811
0.230682
0.227581
0.224591
0.221729
0.219008
0.216393
0.21384
0.211262
0.208724
0.206359
0.20428
0.202638
0.201574
0.201176
0.201616
0.202901
0.204813
0.207296
0.210472
0.214283
0.218305
0.222486
0.228464
0.232686
0.234925
0.237629
0.238828
0.23964
0.240648
0.242399
0.245374
0.250273
0.256248
0.262256
0.267335
0.264798
0.259282
0.259516
0.253272
0.251588
0.247812
0.245247
0.24192
0.242866
0.249656
0.25545
0.251118
0.250738
0.257361
0.252575
0.247831
0.255363
0.252172
0.245578
0.252807
0.258645
0.252044
0.243745
0.236804
0.23919
0.242443
0.252541
0.274619
0.314748
0.396094
0.583619
0.84559
1.18231
1.68103
1.63201
1.38269
1.23405
1.01749
0.875915
0.717068
0.590817
0.460043
0.350397
0.259579
0.20113
6.84682
1.64118
0.706963
0.406482
0.280166
0.221795
0.194908
0.183205
0.179587
0.181157
0.186459
0.194703
0.204982
0.215044
0.223552
0.230464
0.235785
0.239799
0.242675
0.244651
0.245738
0.245663
0.244696
0.243141
0.241112
0.238795
0.236183
0.233431
0.230686
0.228018
0.225386
0.222781
0.220232
0.217755
0.215352
0.213013
0.210718
0.208452
0.20626
0.20422
0.202409
0.200925
0.19988
0.199354
0.199432
0.20015
0.201417
0.203126
0.205284
0.207932
0.2111
0.214484
0.216286
0.216154
0.215857
0.215906
0.216084
0.216614
0.217628
0.219202
0.221318
0.223845
0.226506
0.228997
0.231099
0.231953
0.225543
0.219805
0.215725
0.212761
0.210281
0.207821
0.20474
0.202726
0.201923
0.200833
0.199401
0.196609
0.198841
0.197985
0.201168
0.208185
0.213489
0.218836
0.22477
0.229379
0.226272
0.222195
0.219573
0.21912
0.221146
0.228482
0.241754
0.268353
0.32983
0.499678
0.779165
1.14551
1.42107
1.45328
1.43798
1.23475
1.03916
0.893451
0.741487
0.608334
0.47355
0.356145
0.265579
0.204753
6.85285
1.66748
0.717317
0.41101
0.282973
0.223985
0.196527
0.18416
0.179818
0.180407
0.184173
0.190172
0.198016
0.20726
0.215928
0.22288
0.228148
0.232047
0.234849
0.23681
0.238075
0.238737
0.238486
0.237561
0.236124
0.234336
0.23226
0.230023
0.227732
0.225439
0.223139
0.220836
0.218553
0.216306
0.2141
0.211936
0.20981
0.207727
0.20572
0.203851
0.202193
0.20084
0.199894
0.19944
0.19953
0.200168
0.201271
0.202726
0.204425
0.206208
0.207777
0.208757
0.209058
0.208836
0.208514
0.208247
0.208245
0.208748
0.209874
0.211685
0.214166
0.217178
0.220323
0.222926
0.223996
0.221969
0.216243
0.211018
0.208004
0.206793
0.205
0.201797
0.199258
0.198541
0.198692
0.198049
0.195437
0.191273
0.189708
0.191042
0.195358
0.203855
0.211215
0.217154
0.222728
0.22601
0.223332
0.221068
0.220003
0.220586
0.224229
0.23255
0.246137
0.271263
0.321598
0.44737
0.685665
0.978073
1.2428
1.2784
1.45361
1.18908
1.033
0.897986
0.765752
0.6388
0.511721
0.394397
0.296343
0.223088
6.86021
1.69171
0.726715
0.415319
0.285831
0.226218
0.198172
0.185146
0.180157
0.180025
0.182904
0.187673
0.19353
0.199715
0.205525
0.210657
0.215078
0.218836
0.221983
0.22458
0.226675
0.228316
0.229235
0.229499
0.229235
0.228549
0.227521
0.226242
0.224791
0.22322
0.221555
0.219817
0.218032
0.216219
0.214392
0.212561
0.21074
0.208948
0.20722
0.205609
0.204182
0.203017
0.202197
0.201787
0.201818
0.202277
0.203093
0.204156
0.205344
0.206512
0.20749
0.208106
0.208205
0.207811
0.207271
0.206886
0.20681
0.207159
0.207977
0.209241
0.210853
0.212635
0.214306
0.215552
0.215925
0.214922
0.212331
0.209343
0.206946
0.205079
0.203085
0.200747
0.198595
0.196935
0.195573
0.194212
0.192689
0.191258
0.191112
0.192694
0.195958
0.200804
0.20575
0.210196
0.21395
0.216491
0.217196
0.217874
0.219316
0.222156
0.227636
0.237478
0.252616
0.277729
0.326615
0.4448
0.67179
0.931262
1.08424
1.09669
1.45397
1.16312
1.00702
0.885687
0.769835
0.651013
0.529507
0.41177
0.310196
0.231906
6.86874
1.71328
0.735125
0.419366
0.288631
0.228392
0.199753
0.186095
0.18053
0.179799
0.181988
0.185942
0.190928
0.196419
0.201928
0.207081
0.211694
0.215713
0.219152
0.222052
0.224462
0.226435
0.228018
0.229094
0.2295
0.229389
0.22887
0.22804
0.226978
0.225741
0.22437
0.222895
0.221342
0.219736
0.218094
0.216435
0.214779
0.213151
0.211586
0.210131
0.208844
0.207788
0.207026
0.206606
0.206548
0.206833
0.207399
0.20815
0.208976
0.20975
0.210337
0.21061
0.210493
0.210056
0.209511
0.209093
0.208958
0.20919
0.209827
0.210858
0.212209
0.213725
0.215167
0.216304
0.216688
0.215955
0.214141
0.212015
0.210155
0.208531
0.206801
0.204879
0.203102
0.201699
0.200568
0.199486
0.198355
0.197391
0.197337
0.198631
0.201374
0.205467
0.209916
0.214024
0.217486
0.219967
0.221283
0.22263
0.224877
0.228681
0.235002
0.245131
0.260507
0.282149
0.323276
0.419323
0.625677
0.887865
1.0142
1.02544
1.43096
1.12901
0.960955
0.855865
0.754674
0.649504
0.53851
0.426497
0.325581
0.243382
6.87827
1.73185
0.742462
0.423063
0.291259
0.230408
0.201187
0.186951
0.180894
0.179688
0.181356
0.184703
0.188981
0.193684
0.198438
0.202991
0.207213
0.211051
0.214494
0.217553
0.220249
0.222604
0.224644
0.226361
0.2275
0.228149
0.228385
0.228282
0.227902
0.227295
0.226502
0.225556
0.224486
0.223318
0.222076
0.220782
0.219463
0.218146
0.216869
0.215674
0.214611
0.213731
0.213084
0.212706
0.212607
0.212769
0.213139
0.213637
0.21417
0.214641
0.214953
0.215034
0.214861
0.214487
0.214042
0.213691
0.21356
0.213721
0.214187
0.214917
0.215812
0.21672
0.217498
0.217999
0.218031
0.217438
0.21622
0.214666
0.21303
0.211357
0.209586
0.20773
0.205927
0.204303
0.202906
0.201753
0.200884
0.200423
0.200636
0.201718
0.203722
0.206544
0.20975
0.212924
0.215831
0.218373
0.220637
0.22319
0.226662
0.23167
0.23908
0.249996
0.266479
0.287288
0.326021
0.41084
0.593791
0.82892
0.930636
0.939114
1.37636
1.10368
0.907026
0.813772
0.723113
0.633627
0.533617
0.429298
0.332454
0.250816
6.88863
1.74724
0.748634
0.426316
0.293607
0.232171
0.202403
0.187665
0.18122
0.179664
0.180968
0.183906
0.187741
0.192016
0.19643
0.200783
0.204953
0.208871
0.212503
0.215838
0.218876
0.221625
0.224097
0.226306
0.228253
0.229701
0.230689
0.231282
0.231543
0.231522
0.231262
0.230801
0.230171
0.229403
0.228523
0.227559
0.226539
0.225496
0.224463
0.223481
0.222591
0.221839
0.22126
0.220882
0.220712
0.220729
0.220891
0.221135
0.221388
0.221575
0.221632
0.221515
0.221219
0.220786
0.220307
0.219909
0.219688
0.219681
0.219894
0.22029
0.2208
0.221322
0.221802
0.222092
0.222025
0.221486
0.220493
0.2192
0.217758
0.216215
0.214571
0.212861
0.211182
0.209634
0.20828
0.207166
0.206344
0.20592
0.206065
0.20693
0.208568
0.21089
0.213604
0.216394
0.219073
0.22161
0.224147
0.227093
0.230981
0.236406
0.244057
0.254689
0.270257
0.28944
0.325158
0.399468
0.56051
0.771085
0.865596
0.872077
1.30352
1.0934
0.853251
0.761649
0.678017
0.604938
0.51665
0.423388
0.334258
0.256436
6.89964
1.75938
0.753564
0.429046
0.29559
0.233603
0.203344
0.188205
0.181487
0.17971
0.180785
0.183469
0.187029
0.191037
0.195233
0.199451
0.203582
0.207561
0.211347
0.214919
0.218265
0.221382
0.224271
0.226935
0.229381
0.231603
0.233378
0.234739
0.23573
0.236398
0.236783
0.236921
0.236843
0.236582
0.236167
0.235627
0.234991
0.234291
0.233561
0.232837
0.232155
0.231553
0.23106
0.230697
0.230467
0.230356
0.230331
0.230344
0.23034
0.230269
0.230086
0.229769
0.229321
0.228778
0.228228
0.22775
0.227392
0.227189
0.227139
0.227208
0.22733
0.22744
0.227511
0.227441
0.22713
0.226506
0.225564
0.224365
0.222981
0.221452
0.219805
0.218086
0.216374
0.214759
0.213321
0.212133
0.211266
0.210804
0.210847
0.211477
0.212712
0.214483
0.216617
0.218924
0.221307
0.223794
0.226537
0.229831
0.234088
0.23987
0.247699
0.258043
0.272696
0.290803
0.324231
0.390034
0.527813
0.709084
0.80413
0.808556
1.22619
1.08901
0.807459
0.70557
0.626248
0.568261
0.490192
0.409457
0.330248
0.25926
6.91112
1.76824
0.757197
0.431185
0.297138
0.23465
0.203973
0.18855
0.181686
0.179811
0.180782
0.183334
0.186745
0.190612
0.194702
0.198876
0.203043
0.207141
0.211129
0.214978
0.218668
0.222187
0.225525
0.228677
0.231641
0.234415
0.236997
0.239225
0.241044
0.2425
0.243628
0.24446
0.245026
0.245357
0.245482
0.24543
0.245231
0.244915
0.244515
0.244064
0.243593
0.243135
0.242715
0.24235
0.242046
0.241791
0.241565
0.241335
0.241063
0.240715
0.240267
0.239707
0.239044
0.238332
0.237626
0.236959
0.236376
0.235899
0.235521
0.235211
0.234918
0.234637
0.234341
0.233959
0.233415
0.23265
0.231645
0.230423
0.229019
0.227465
0.225794
0.224051
0.222302
0.220625
0.219102
0.217809
0.216821
0.216217
0.216072
0.216441
0.21733
0.218682
0.220385
0.222325
0.224455
0.226829
0.229596
0.232989
0.237331
0.243116
0.250665
0.260302
0.273749
0.290468
0.321699
0.38193
0.502703
0.656958
0.747251
0.750928
1.16314
1.0725
0.779979
0.652242
0.575313
0.52966
0.458844
0.390453
0.32182
0.259605
6.92288
1.7738
0.759503
0.432678
0.298196
0.235276
0.204277
0.188699
0.181817
0.179963
0.180937
0.18346
0.186823
0.190648
0.194728
0.198944
0.20322
0.207499
0.21174
0.21591
0.219984
0.223942
0.227768
0.231449
0.234975
0.238337
0.241529
0.244545
0.247314
0.249665
0.251657
0.253305
0.254633
0.255667
0.256432
0.256955
0.257265
0.25739
0.25736
0.257206
0.256958
0.256646
0.256292
0.255915
0.255522
0.255111
0.254671
0.254184
0.253627
0.252982
0.252236
0.251388
0.250472
0.249536
0.248583
0.247653
0.246777
0.245967
0.245216
0.244497
0.24377
0.243091
0.242421
0.241706
0.240886
0.23991
0.238748
0.237402
0.23589
0.234237
0.232473
0.230642
0.228798
0.227012
0.225357
0.223909
0.222745
0.22194
0.22156
0.221645
0.222194
0.223167
0.224492
0.226103
0.227991
0.230221
0.232925
0.236298
0.240549
0.246086
0.253113
0.261919
0.274147
0.28948
0.318669
0.374402
0.48298
0.621272
0.704321
0.707313
1.11619
1.05987
0.759927
0.607324
0.530587
0.494027
0.427706
0.369547
0.310491
0.257807
6.93476
1.77611
0.760478
0.433479
0.298726
0.235464
0.204255
0.188659
0.181887
0.180166
0.181238
0.183819
0.187223
0.191096
0.195255
0.199598
0.204057
0.208585
0.213139
0.217688
0.2222
0.226653
0.231023
0.235293
0.239445
0.243464
0.247337
0.25105
0.254593
0.257948
0.260931
0.263528
0.26575
0.267613
0.269131
0.270324
0.271216
0.271834
0.272209
0.27237
0.27235
0.272178
0.27188
0.271476
0.270979
0.270396
0.269726
0.268961
0.268096
0.267123
0.26604
0.264865
0.263666
0.262411
0.261134
0.259863
0.258619
0.25741
0.256229
0.255054
0.253892
0.252783
0.251706
0.250621
0.249477
0.248223
0.246825
0.245274
0.243577
0.241753
0.239831
0.23785
0.235859
0.233916
0.232088
0.230444
0.229059
0.228007
0.227348
0.227119
0.227322
0.22793
0.2289
0.230202
0.231845
0.233896
0.236468
0.239717
0.243732
0.248868
0.255305
0.263307
0.274434
0.288519
0.316152
0.368607
0.469178
0.601127
0.679302
0.681701
1.08664
1.05723
0.744283
0.572419
0.48956
0.461438
0.399486
0.349122
0.297844
0.254413
6.94655
1.77522
0.760147
0.433562
0.298705
0.23521
0.203916
0.188444
0.181911
0.180427
0.181684
0.184407
0.187934
0.191941
0.196263
0.200815
0.205537
0.210387
0.215327
0.220323
0.225345
0.230365
0.235357
0.240296
0.245161
0.24993
0.25458
0.259093
0.263449
0.267627
0.271608
0.2753
0.278549
0.281366
0.283748
0.285701
0.287241
0.288396
0.289197
0.289681
0.289884
0.289842
0.289586
0.28914
0.288526
0.287755
0.286836
0.285774
0.284573
0.283237
0.281775
0.280274
0.278695
0.277057
0.275382
0.273695
0.272011
0.270337
0.268666
0.266983
0.26534
0.263762
0.262239
0.26074
0.259218
0.257623
0.255919
0.254088
0.25213
0.250064
0.247914
0.245718
0.243518
0.241366
0.239317
0.237436
0.235791
0.23445
0.233475
0.232902
0.232742
0.232984
0.233607
0.234604
0.235995
0.237843
0.240235
0.243291
0.247001
0.251708
0.257594
0.26488
0.275076
0.288001
0.314485
0.364678
0.460838
0.594472
0.672146
0.67423
1.07384
1.06529
0.734508
0.544229
0.45104
0.428595
0.371687
0.329411
0.284744
0.249897
6.95808
1.77122
0.758562
0.432927
0.298131
0.234519
0.203273
0.188076
0.181912
0.180765
0.182291
0.185233
0.188965
0.193187
0.197758
0.202601
0.20767
0.212925
0.218334
0.223863
0.229483
0.235164
0.240876
0.246592
0.252283
0.257921
0.263478
0.268926
0.274235
0.279373
0.284308
0.289002
0.293387
0.297259
0.300589
0.303365
0.305597
0.307309
0.308541
0.309339
0.309749
0.309816
0.309579
0.30907
0.308316
0.307336
0.306145
0.304758
0.303187
0.301443
0.29961
0.297691
0.29567
0.293574
0.291425
0.289244
0.287046
0.284836
0.282609
0.280354
0.278173
0.276073
0.274052
0.272084
0.270127
0.268129
0.26605
0.263868
0.26158
0.259201
0.256755
0.254276
0.251803
0.249382
0.247062
0.244899
0.242953
0.241289
0.239965
0.23902
0.238477
0.238339
0.23861
0.239295
0.240424
0.242051
0.24424
0.247082
0.250505
0.254857
0.260306
0.267005
0.276489
0.288311
0.313372
0.361579
0.457583
0.599388
0.677851
0.679804
1.06895
1.08385
0.739351
0.52025
0.419699
0.391785
0.342231
0.306449
0.269826
0.24446
6.96918
1.76419
0.755787
0.431602
0.29702
0.233398
0.202342
0.187589
0.181928
0.181215
0.183089
0.186326
0.19034
0.19486
0.199765
0.20499
0.210496
0.216251
0.222226
0.228392
0.234718
0.241176
0.247734
0.254361
0.261025
0.267691
0.274323
0.280884
0.28733
0.293615
0.299682
0.305463
0.310885
0.315862
0.320177
0.323798
0.326729
0.328996
0.330646
0.331733
0.332316
0.332451
0.332188
0.33157
0.33063
0.329394
0.327884
0.326119
0.324118
0.321936
0.319668
0.317245
0.314699
0.312058
0.309345
0.306581
0.303781
0.300952
0.298091
0.295227
0.292439
0.28975
0.287168
0.284671
0.282217
0.279753
0.277235
0.274637
0.271952
0.269193
0.266383
0.263554
0.260743
0.257992
0.255345
0.252851
0.250563
0.24854
0.246835
0.245493
0.244543
0.244009
0.243909
0.244267
0.245119
0.246513
0.248498
0.251147
0.254361
0.258492
0.263673
0.269947
0.278931
0.289922
0.31418
0.36099
0.458749
0.609993
0.690125
0.692164
1.07925
1.11763
0.768338
0.514001
0.400762
0.360433
0.317907
0.284377
0.252872
0.237826
6.97969
1.75419
0.751888
0.429641
0.295403
0.231863
0.201158
0.187034
0.18201
0.181822
0.184118
0.187724
0.192099
0.197004
0.202333
0.208035
0.214081
0.220444
0.227101
0.234026
0.241192
0.248571
0.256133
0.263844
0.271669
0.279568
0.287496
0.295402
0.303227
0.310893
0.318302
0.325343
0.331907
0.337903
0.343227
0.347696
0.351321
0.354132
0.356177
0.357519
0.358226
0.358367
0.358004
0.357193
0.355978
0.354392
0.352465
0.350222
0.347689
0.345037
0.342173
0.339129
0.335933
0.332617
0.329208
0.32573
0.322201
0.318628
0.315016
0.311435
0.307952
0.304605
0.301408
0.298344
0.295362
0.292403
0.289414
0.286362
0.283237
0.280046
0.276815
0.273575
0.270364
0.267223
0.264192
0.261315
0.25864
0.256219
0.254102
0.252336
0.250958
0.250005
0.249513
0.24952
0.250073
0.251223
0.253011
0.255508
0.258605
0.262657
0.267731
0.273751
0.282404
0.292875
0.316924
0.362848
0.462995
0.622403
0.705782
0.708308
1.10256
1.16472
0.819187
0.524731
0.392107
0.335339
0.298305
0.26608
0.238834
0.229664
6.98949
1.74129
0.746938
0.427122
0.29331
0.229942
0.199781
0.186483
0.182222
0.182641
0.185429
0.18948
0.1943
0.19968
0.205533
0.211821
0.218521
0.225616
0.233089
0.24092
0.249089
0.257569
0.266333
0.275348
0.284577
0.293974
0.303485
0.313043
0.32255
0.331875
0.340856
0.34933
0.357162
0.364256
0.370555
0.375913
0.380254
0.383613
0.386041
0.387602
0.388374
0.388442
0.387882
0.386765
0.385147
0.383074
0.380583
0.3777
0.37457
0.371217
0.367602
0.363761
0.359733
0.355556
0.351269
0.346903
0.342482
0.338018
0.333519
0.329099
0.324816
0.320718
0.316826
0.313121
0.309548
0.306039
0.302532
0.298987
0.295384
0.291727
0.288034
0.284337
0.280675
0.277088
0.273618
0.270307
0.267199
0.26434
0.261778
0.25956
0.25773
0.256335
0.255425
0.255054
0.25528
0.256165
0.257757
0.260134
0.263192
0.267258
0.272331
0.278277
0.286789
0.297123
0.32136
0.36649
0.469208
0.636006
0.724395
0.727712
1.14947
1.23595
0.887831
0.546735
0.388889
0.316997
0.282817
0.251544
0.227333
0.217805
6.99843
1.7256
0.741022
0.424127
0.290769
0.227682
0.198295
0.186022
0.182634
0.183734
0.187087
0.191663
0.197018
0.202974
0.209461
0.216453
0.223938
0.231909
0.240357
0.249272
0.258639
0.268442
0.278658
0.289257
0.300204
0.311448
0.322922
0.334516
0.346064
0.357347
0.368132
0.378226
0.387488
0.395829
0.40319
0.409505
0.414623
0.41856
0.421361
0.423096
0.423854
0.423738
0.422847
0.421272
0.419088
0.416352
0.41311
0.409429
0.405546
0.401292
0.396724
0.391882
0.386814
0.381569
0.376196
0.370739
0.36523
0.35969
0.354155
0.348737
0.343506
0.338521
0.333805
0.329335
0.325049
0.320874
0.316741
0.312605
0.308441
0.304246
0.300034
0.29583
0.291668
0.287587
0.283629
0.279836
0.276249
0.272911
0.269869
0.26717
0.264863
0.263003
0.261649
0.260869
0.260736
0.261325
0.262703
0.264963
0.268016
0.27214
0.277269
0.283362
0.292027
0.302715
0.327481
0.371652
0.477159
0.651144
0.747451
0.751872
1.22689
1.33904
0.962515
0.571374
0.388821
0.306469
0.272178
0.241606
0.219191
0.208343
7.00639
1.70729
0.734245
0.42072
0.28781
0.225158
0.196809
0.185743
0.183325
0.185177
0.189171
0.194359
0.20035
0.206992
0.214235
0.222065
0.230485
0.239498
0.249108
0.259318
0.270127
0.281528
0.293511
0.306056
0.319131
0.332679
0.346595
0.360683
0.374657
0.388207
0.401072
0.413058
0.424027
0.433873
0.442503
0.449858
0.45585
0.460393
0.463539
0.465369
0.465982
0.465504
0.464072
0.461809
0.458817
0.455175
0.450932
0.446369
0.441398
0.436013
0.430249
0.424158
0.417798
0.411233
0.404527
0.397738
0.39091
0.384075
0.377304
0.370706
0.364367
0.35835
0.352673
0.347304
0.342172
0.337193
0.332295
0.327431
0.322575
0.317725
0.312892
0.308096
0.303364
0.29873
0.294231
0.289904
0.285792
0.281935
0.278377
0.275166
0.272355
0.270004
0.268182
0.266965
0.266439
0.266694
0.267818
0.269929
0.272963
0.277163
0.282411
0.288911
0.298103
0.309701
0.335369
0.378453
0.487098
0.668319
0.776878
0.782697
1.33867
1.46636
1.02348
0.590048
0.392324
0.303697
0.267553
0.236681
0.215032
0.202936
7.01321
1.68662
0.726731
0.416925
0.284473
0.222481
0.195442
0.185747
0.184383
0.18706
0.191778
0.197676
0.204412
0.211863
0.219997
0.228818
0.238342
0.24859
0.259584
0.271344
0.28389
0.297235
0.31139
0.326351
0.342094
0.358532
0.37546
0.392527
0.409339
0.425563
0.440963
0.455327
0.468519
0.480299
0.490442
0.498945
0.505751
0.510841
0.514262
0.516054
0.516256
0.515077
0.512731
0.509412
0.505264
0.500373
0.494885
0.489087
0.482742
0.475918
0.468661
0.461029
0.453092
0.444927
0.436615
0.428229
0.419826
0.411449
0.40322
0.395253
0.387644
0.380454
0.373688
0.367292
0.36118
0.35526
0.349453
0.343711
0.338014
0.33236
0.326766
0.321252
0.315843
0.310567
0.305451
0.300529
0.295836
0.291411
0.287297
0.28354
0.280195
0.277327
0.275011
0.27333
0.27238
0.272264
0.273086
0.274987
0.277945
0.282229
0.28766
0.294823
0.304919
0.317968
0.344891
0.387325
0.499679
0.688654
0.81491
0.822385
1.48191
1.60157
1.06921
0.60976
0.405318
0.310965
0.269242
0.236713
0.214429
0.201522
7.01874
1.66397
0.718627
0.412716
0.280813
0.219798
0.194334
0.186144
0.18591
0.18949
0.195024
0.201741
0.209344
0.217739
0.226914
0.236894
0.247716
0.259423
0.272062
0.285683
0.300334
0.316064
0.332916
0.350913
0.370021
0.390048
0.410593
0.431176
0.45141
0.47107
0.489736
0.507454
0.52434
0.539873
0.553452
0.564599
0.573049
0.578751
0.581809
0.582409
0.580775
0.577198
0.572062
0.565824
0.558921
0.55165
0.544485
0.537002
0.528999
0.520469
0.511481
0.502105
0.492408
0.482464
0.472357
0.462176
0.451992
0.441883
0.432015
0.422522
0.413514
0.40504
0.397074
0.389537
0.382323
0.375326
0.368465
0.361692
0.354991
0.34837
0.341852
0.335465
0.329237
0.323194
0.317358
0.311752
0.306406
0.301352
0.296629
0.292283
0.288369
0.284953
0.282114
0.279942
0.278539
0.278015
0.278487
0.280114
0.282919
0.287259
0.292902
0.300905
0.31217
0.327126
0.355621
0.398807
0.516048
0.7138
0.862972
0.871697
1.64131
1.72918
1.12975
0.652501
0.434858
0.33097
0.278147
0.240967
0.215908
0.202759
7.02284
1.63988
0.710114
0.408042
0.276895
0.217284
0.193647
0.187053
0.188025
0.192593
0.199049
0.206703
0.215305
0.224789
0.23517
0.246497
0.258836
0.272263
0.286862
0.302724
0.319948
0.338634
0.358877
0.380721
0.404033
0.428388
0.453231
0.478175
0.502713
0.528096
0.555178
0.583413
0.611598
0.638091
0.661192
0.679559
0.692484
0.69991
0.702182
0.699722
0.692846
0.681881
0.667469
0.650798
0.633443
0.617198
0.603219
0.590617
0.578912
0.567645
0.556477
0.545222
0.53384
0.522383
0.510728
0.498864
0.486916
0.475054
0.463514
0.452468
0.44203
0.432229
0.423004
0.414245
0.405825
0.397627
0.38957
0.38161
0.373739
0.365977
0.35836
0.350925
0.343711
0.336747
0.330054
0.32365
0.317554
0.311789
0.306389
0.301397
0.296865
0.292859
0.289462
0.286767
0.284879
0.283911
0.283989
0.285281
0.287856
0.292189
0.298026
0.306865
0.319342
0.336517
0.366815
0.412918
0.536473
0.745364
0.922247
0.930449
1.78152
1.82885
1.23303
0.736569
0.484275
0.359281
0.291916
0.247197
0.217903
0.204308
7.02539
1.61497
0.701411
0.402879
0.272809
0.215125
0.193546
0.188608
0.190863
0.196517
0.204011
0.212733
0.222471
0.233197
0.244959
0.25784
0.271948
0.287405
0.304349
0.322935
0.343336
0.365735
0.390286
0.416968
0.445373
0.47486
0.504922
0.536669
0.574081
0.618844
0.671483
0.730568
0.792496
0.852194
0.904429
0.945158
0.972457
0.986531
0.98886
0.980949
0.963406
0.935863
0.897971
0.850903
0.798512
0.750557
0.709565
0.676304
0.649736
0.628153
0.60987
0.593617
0.57858
0.564272
0.550394
0.536767
0.523369
0.510202
0.497291
0.48488
0.473119
0.46204
0.451565
0.441558
0.431871
0.42238
0.413002
0.403703
0.394492
0.385407
0.3765
0.367829
0.359442
0.351381
0.343671
0.336326
0.329358
0.32278
0.316617
0.310904
0.305689
0.301039
0.297034
0.293771
0.291357
0.289906
0.289545
0.290449
0.292724
0.29695
0.30291
0.3124
0.325888
0.345296
0.377369
0.428532
0.560117
0.783676
0.988673
0.996222
1.877
1.90705
1.38157
0.86009
0.54388
0.385941
0.303228
0.251798
0.219736
0.204396
7.02636
1.58997
0.692722
0.397273
0.268702
0.213527
0.194208
0.19096
0.194585
0.201435
0.210093
0.22001
0.231023
0.243147
0.256476
0.271145
0.287317
0.30518
0.324954
0.34689
0.371273
0.398395
0.4284
0.460974
0.49543
0.531127
0.573701
0.629803
0.705869
0.807235
0.934434
1.0813
1.23537
1.38175
1.50654
1.60048
1.66044
1.6891
1.69179
1.674
1.63922
1.5869
1.51359
1.4157
1.29807
1.17262
1.04692
0.932576
0.837262
0.763801
0.710075
0.670776
0.6409
0.616885
0.596507
0.578405
0.56182
0.547351
0.533275
0.51968
0.506723
0.494451
0.482783
0.471558
0.460599
0.449765
0.438974
0.428205
0.41749
0.406893
0.396498
0.386383
0.376621
0.367267
0.358356
0.349905
0.34192
0.334406
0.327374
0.320849
0.314873
0.309506
0.304829
0.300938
0.297943
0.29596
0.295113
0.295577
0.297483
0.301479
0.307429
0.317275
0.331397
0.352668
0.386048
0.443323
0.584202
0.82488
1.05344
1.06223
1.97051
2.00105
1.56476
1.02552
0.611924
0.401395
0.307208
0.252164
0.219846
0.201858
7.02581
1.5657
0.684155
0.391358
0.264831
0.212727
0.195826
0.194277
0.199371
0.20754
0.217484
0.228716
0.241131
0.25481
0.269911
0.286637
0.305232
0.325979
0.349215
0.375334
0.404782
0.437921
0.474618
0.514157
0.556565
0.612864
0.695542
0.82097
1.00524
1.25594
1.56253
1.8968
2.22321
2.5105
2.73429
2.88695
2.97073
2.9952
2.97434
2.92282
2.85163
2.76454
2.65757
2.52219
2.36361
2.16687
1.93803
1.69282
1.45404
1.23924
1.05977
0.919493
0.814772
0.738113
0.683343
0.643762
0.614022
0.591677
0.573872
0.557775
0.543103
0.529534
0.516701
0.504304
0.492107
0.479929
0.467675
0.455336
0.442971
0.430681
0.418588
0.406809
0.395449
0.384585
0.374269
0.364525
0.355359
0.346765
0.338742
0.331301
0.32447
0.318303
0.312875
0.308283
0.30464
0.302062
0.300672
0.300639
0.302103
0.305732
0.311489
0.321342
0.335674
0.358049
0.392343
0.454579
0.604646
0.862155
1.10551
1.11569
2.10224
2.11892
1.71835
1.15607
0.672224
0.406052
0.303625
0.247994
0.216045
0.197066
7.02389
1.54316
0.675712
0.385349
0.261561
0.212994
0.198607
0.198783
0.205424
0.215037
0.226371
0.239006
0.252938
0.268336
0.285446
0.304562
0.326039
0.350295
0.377838
0.40927
0.445201
0.485793
0.530237
0.580028
0.65206
0.768761
0.96237
1.26808
1.70245
2.24477
2.83901
3.41125
3.90898
4.3031
4.58387
4.75407
4.82321
4.80763
4.72954
4.61336
4.47988
4.34113
4.19651
4.04454
3.86572
3.63899
3.35819
3.03038
2.67366
2.30986
1.95949
1.64023
1.36883
1.14878
0.97596
0.845638
0.751072
0.684738
0.64071
0.61061
0.587783
0.569578
0.554119
0.540088
0.52657
0.513035
0.499288
0.485306
0.471166
0.457012
0.443015
0.429344
0.416148
0.403539
0.391593
0.380348
0.369813
0.359978
0.350826
0.342351
0.334563
0.327501
0.321235
0.315858
0.311485
0.308236
0.306235
0.305639
0.30658
0.309702
0.315063
0.324552
0.338739
0.361171
0.396339
0.460661
0.617535
0.88626
1.13385
1.14464
2.20327
2.16152
1.6991
1.13536
0.64932
0.390937
0.293406
0.241582
0.210458
0.19202
7.02084
1.52365
0.667384
0.379473
0.259288
0.2146
0.202766
0.204713
0.212961
0.224128
0.236897
0.250988
0.266547
0.283859
0.303276
0.325215
0.35018
0.378784
0.411781
0.450033
0.494093
0.54323
0.600087
0.688304
0.843801
1.12234
1.58272
2.24556
3.06683
3.94659
4.78648
5.51963
6.11489
6.55969
6.85907
7.0209
7.05947
6.99459
6.85166
6.66056
6.45141
6.24682
6.05634
5.88594
5.6899
5.44471
5.1327
4.75033
4.30886
3.83053
3.34243
2.86991
2.43209
2.03945
1.69311
1.39562
1.15503
0.970757
0.836087
0.742164
0.678073
0.635241
0.605726
0.583855
0.565973
0.549845
0.534208
0.518402
0.502337
0.486148
0.470043
0.454247
0.438962
0.424352
0.410529
0.397554
0.385444
0.374188
0.363753
0.354112
0.345253
0.337197
0.329998
0.323745
0.318553
0.314547
0.311851
0.310614
0.310948
0.313432
0.318209
0.326974
0.340774
0.362223
0.398083
0.461673
0.621502
0.892344
1.13429
1.14466
2.19788
2.0328
1.4906
0.953566
0.552039
0.364918
0.281471
0.236526
0.206308
0.189588
7.01694
1.50874
0.659214
0.373948
0.258387
0.217808
0.208526
0.212286
0.222199
0.234959
0.249127
0.26471
0.282038
0.301523
0.323647
0.348988
0.378257
0.412346
0.452345
0.499254
0.55272
0.6155
0.718243
0.913372
1.28724
1.92461
2.83647
3.93162
5.07409
6.17068
7.15379
7.97738
8.61732
9.07264
9.3555
9.48334
9.47567
9.35415
9.14441
8.87748
8.58826
8.30909
8.07127
7.8576
7.63873
7.3811
7.05681
6.65132
6.16674
5.6199
5.0368
4.44551
3.86889
3.32192
2.81315
2.34962
1.94025
1.59327
1.30919
1.08745
0.923768
0.806434
0.723456
0.666383
0.627277
0.598833
0.576121
0.556109
0.537191
0.518528
0.500006
0.48181
0.464166
0.44728
0.431312
0.416354
0.402442
0.389562
0.377675
0.36675
0.356708
0.347547
0.339309
0.332075
0.325961
0.321096
0.31761
0.315641
0.31528
0.317013
0.321054
0.328801
0.342035
0.361763
0.397903
0.458898
0.61727
0.882442
1.11366
1.12289
2.12592
1.79993
1.21118
0.758336
0.472904
0.347023
0.273549
0.235006
0.205227
0.190504
7.01256
1.49942
0.651602
0.369251
0.259265
0.222877
0.216106
0.221714
0.233324
0.247559
0.263035
0.280185
0.299501
0.321526
0.346903
0.376424
0.411098
0.45221
0.501181
0.558369
0.625531
0.73892
0.969136
1.43947
2.26361
3.42897
4.77122
6.13612
7.45041
8.6683
9.71864
10.5517
11.16
11.5624
11.7847
11.8522
11.7871
11.6103
11.344
11.0159
10.6599
10.3147
10.0202
9.75466
9.50181
9.22819
8.89935
8.49186
7.99866
7.42893
6.80411
6.15087
5.49393
4.85049
4.22948
3.63561
3.07558
2.56129
2.1074
1.72694
1.42271
1.18616
1.00561
0.870242
0.770671
0.698202
0.647084
0.609922
0.580949
0.556311
0.53393
0.51262
0.492153
0.472642
0.454219
0.437
0.421055
0.406343
0.392817
0.380413
0.369043
0.358661
0.349278
0.340962
0.333824
0.327999
0.323621
0.320825
0.319681
0.320572
0.323769
0.330305
0.342807
0.36053
0.396387
0.454121
0.607321
0.862258
1.08332
1.09169
2.08069
1.60354
1.00549
0.637721
0.434252
0.339152
0.270578
0.235205
0.206955
0.19267
7.00811
1.49704
0.644743
0.365934
0.262382
0.230063
0.225713
0.23316
0.246407
0.261798
0.278554
0.297447
0.319088
0.344164
0.373525
0.40827
0.449835
0.499988
0.559914
0.630097
0.74879
1.00356
1.55972
2.56791
3.98193
5.557
7.11622
8.60081
9.97628
11.1955
12.2036
12.9614
13.4785
13.7892
13.9291
13.9268
13.8048
13.5814
13.2747
12.9069
12.5079
12.1247
11.7712
11.455
11.1634
10.8668
10.53
10.1252
9.63913
9.07458
8.44706
7.7798
7.09667
6.41534
5.74389
5.083
4.43358
3.80399
3.21169
2.67683
2.21312
1.82563
1.51321
1.26596
1.0724
0.921611
0.806576
0.72006
0.657784
0.612502
0.577839
0.549245
0.524189
0.501125
0.479708
0.459851
0.441544
0.424737
0.409355
0.395297
0.382448
0.370719
0.36008
0.350573
0.342303
0.335409
0.330031
0.326303
0.324288
0.324264
0.326543
0.331791
0.34339
0.359262
0.394237
0.44934
0.596569
0.83818
1.05168
1.05925
2.11189
1.51224
0.904282
0.582414
0.417258
0.335871
0.270942
0.236327
0.210561
0.195287
7.00229
1.4973
0.637699
0.364098
0.267814
0.239415
0.237446
0.246695
0.2613
0.277482
0.29565
0.316598
0.341062
0.369867
0.404167
0.445538
0.49597
0.5574
0.629653
0.748231