/*--------------------------------*- C++ -*----------------------------------*\
| =========                 |                                                 |
| \\      /  F ield         | OpenFOAM: The Open Source CFD Toolbox           |
|  \\    /   O peration     | Version:  v2106                                 |
|   \\  /    A nd           | Website:  www.openfoam.com                      |
|    \\/     M anipulation  |                                                 |
\*---------------------------------------------------------------------------*/
FoamFile
{
    version     2.0;
    format      ascii;
    arch        "LSB;label=32;scalar=64";
    class       volScalarField;
    location    "2";
    object      p;
}
// * * * * * * * * * * * * * * * * * * * * * * * * * * * * * * * * * * * * * //

dimensions      [1 -1 -2 0 0 0 0];

internalField   nonuniform List<scalar> 
29678
(
14640.6
14493.4
14346.2
14199
14051.7
13904.5
13757.1
13609.6
13461.8
13313.5
13164.1
13012.8
12858.9
12695.8
12540.3
12388.4
12237.2
12086.4
11935.8
11785.4
11635
11484.6
11334.3
11184
11033.7
10883.5
10733.3
10583.2
10433.1
10283.1
10133.1
9983.16
9833.27
9683.41
9533.61
9383.85
9234.13
9084.46
8934.83
8785.28
8635.78
8486.36
8337.02
8187.76
8038.58
7889.47
7740.42
7591.38
7442.26
7292.91
7142.89
6991.72
6837.62
6682.4
6530.77
6380.53
6230.87
6081.48
5932.28
5783.25
5634.4
5485.74
5337.28
5189.02
5040.89
4892.82
4744.32
4595.18
4446.25
4297.36
4148.75
4000.08
3850.9
3701.81
3552.91
3404.12
3255.31
3106.43
2956.66
2807.17
2657.93
2508.46
2359.91
2211.33
2062.6
1913.79
1764.68
1615.57
1466.82
1317.67
1168.62
1019.51
870.038
720.337
570.635
421.655
271.992
122.004
21.8561
0.0942299
-0.254158
-0.323267
-0.534602
-0.685156
-0.870386
-1.04412
-1.22508
-1.40419
-1.58604
-1.76772
14639
14491.8
14344.6
14197.3
14049.8
13902.3
13754.7
13606.8
13458.8
13310.5
13161.8
13012.1
12860.4
12700.8
12544.2
12391.2
12239.5
12088.3
11937.4
11786.7
11636.1
11485.5
11335
11184.6
11034.2
10883.9
10733.6
10583.3
10433.1
10282.9
10132.8
9982.75
9832.73
9682.76
9532.84
9382.97
9233.15
9083.37
8933.66
8784
8634.4
8484.87
8335.4
8186
8036.66
7887.38
7738.12
7588.85
7439.5
7289.99
7140.28
6989.87
6837.31
6683.17
6531.45
6380.98
6231.14
6081.62
5932.33
5783.22
5634.28
5485.54
5337
5188.66
5040.5
4892.43
4744.09
4595.1
4446.15
4297.27
4148.71
4000.07
3851
3701.98
3553.15
3404.43
3255.74
3107.02
2957.55
2808.23
2659.1
2509.77
2361.22
2212.73
2064.13
1915.46
1766.59
1617.7
1469.09
1320.28
1171.51
1022.78
873.809
724.649
575.617
427.069
278.211
128.349
24.5784
-0.0145448
-0.22523
-0.323979
-0.515632
-0.677445
-0.860706
-1.03773
-1.21905
-1.3995
-1.58189
-1.76423
14637.5
14490.3
14343
14195.5
14048
13900.3
13752.3
13604.2
13455.7
13306.6
13156.7
13005.5
12852.8
12698.6
12545.1
12392.6
12240.9
12089.6
11938.5
11787.6
11636.8
11486.1
11335.5
11185
11034.4
10884
10733.5
10583.2
10432.8
10282.5
10132.3
9982.12
9831.99
9681.91
9531.89
9381.92
9232.01
9082.16
8932.36
8782.63
8632.96
8483.35
8333.81
8184.33
8034.9
7885.5
7736.1
7586.65
7437.09
7287.29
7137.09
6986.17
6834.66
6683.05
6532.07
6381.78
6231.97
6082.46
5933.19
5784.12
5635.22
5486.48
5337.87
5189.37
5040.94
4892.5
4743.94
4595.19
4446.43
4297.72
4149.05
4000.33
3851.53
3702.74
3553.98
3405.23
3256.45
3107.6
2958.57
2809.59
2660.7
2511.85
2363.16
2214.56
2065.97
1917.36
1768.72
1620.09
1471.53
1322.95
1174.4
1025.9
877.35
728.801
580.398
432.275
284.367
136.756
31.8964
0.0347725
-0.153684
-0.313508
-0.500497
-0.673118
-0.854825
-1.03447
-1.21576
-1.39736
-1.57956
-1.7622
14636.1
14488.9
14341.5
14194
14046.3
13898.4
13750.3
13601.9
13453.1
13303.9
13154
13003.5
12852
12699.4
12546.5
12394.2
12242.3
12090.8
11939.6
11788.5
11637.6
11486.7
11336
11185.3
11034.6
10884
10733.5
10583
10432.5
10282.1
10131.8
9981.46
9831.22
9681.03
9530.9
9380.83
9230.83
9080.89
8931.01
8781.19
8631.45
8481.76
8332.14
8182.57
8033.05
7883.54
7734.02
7584.46
7434.79
7284.94
7134.86
6984.51
6833.81
6682.85
6532.17
6381.96
6232.14
6082.6
5933.29
5784.17
5635.23
5486.43
5337.77
5189.22
5040.74
4892.28
4743.76
4595.11
4446.43
4297.77
4149.13
4000.47
3851.77
3703.05
3554.35
3405.67
3256.99
3108.28
2959.46
2810.65
2661.89
2513.18
2364.6
2216.1
2067.63
1919.16
1770.7
1622.27
1473.9
1325.55
1177.27
1029.05
880.882
732.781
584.825
437.055
289.464
141.824
34.1673
0.0661463
-0.138836
-0.304363
-0.491351
-0.667926
-0.84993
-1.03066
-1.21232
-1.39427
-1.57664
-1.75939
14634.8
14487.6
14340.1
14192.5
14044.7
13896.7
13748.4
13599.9
13451
13301.6
13151.7
13001.2
12850
12698.1
12546.1
12394.3
12242.7
12091.3
11940.1
11789
11638
11487.1
11336.3
11185.5
11034.7
10884
10733.3
10582.7
10432.1
10281.6
10131.1
9980.72
9830.36
9680.06
9529.83
9379.67
9229.57
9079.54
8929.58
8779.68
8629.86
8480.11
8330.41
8180.77
8031.17
7881.59
7732
7582.38
7432.68
7282.86
7132.88
6982.7
6832.33
6681.92
6531.68
6381.72
6232.05
6082.62
5933.4
5784.36
5635.46
5486.7
5338.03
5189.44
5040.9
4892.37
4743.81
4595.21
4446.61
4298.02
4149.43
4000.84
3852.23
3703.62
3555.02
3406.41
3257.78
3109.11
2960.44
2811.8
2663.19
2514.64
2366.15
2217.73
2069.35
1921.01
1772.7
1624.44
1476.25
1328.12
1180.08
1032.14
884.304
736.592
589.058
441.696
294.542
147.466
37.0585
0.0742041
-0.126886
-0.299204
-0.485843
-0.664415
-0.846741
-1.02798
-1.20989
-1.392
-1.57439
-1.75705
14633.7
14486.4
14338.9
14191.2
14043.3
13895.2
13746.9
13598.2
13449.2
13299.8
13150
12999.6
12848.8
12697.5
12546.1
12394.6
12243.2
12091.9
11940.6
11789.5
11638.5
11487.5
11336.5
11185.6
11034.7
10883.9
10733.1
10582.4
10431.7
10281
10130.4
9979.9
9829.43
9679.02
9528.68
9378.42
9228.22
9078.1
8928.06
8778.09
8628.2
8478.37
8328.62
8178.92
8029.26
7879.63
7730
7580.36
7430.67
7280.91
7131.05
6981.09
6831.05
6681.01
6531.06
6381.3
6231.77
6082.42
5933.25
5784.23
5635.34
5486.57
5337.9
5189.3
5040.76
4892.24
4743.72
4595.19
4446.64
4298.11
4149.57
4001.04
3852.5
3703.96
3555.42
3406.88
3258.35
3109.8
2961.27
2812.76
2664.29
2515.86
2367.49
2219.17
2070.94
1922.74
1774.59
1626.5
1478.5
1330.58
1182.78
1035.11
887.579
740.211
593.052
446.075
299.315
152.643
39.8174
0.06923
-0.122586
-0.298387
-0.483026
-0.662414
-0.844692
-1.02601
-1.208
-1.3901
-1.57244
-1.75497
14632.7
14485.4
14337.9
14190.1
14042.2
13894
13745.6
13596.8
13447.8
13298.4
13148.6
12998.4
12847.8
12696.9
12545.8
12394.6
12243.3
12092.1
11940.9
11789.8
11638.7
11487.6
11336.6
11185.6
11034.6
10883.7
10732.8
10581.9
10431.1
10280.4
10129.6
9978.99
9828.4
9677.88
9527.44
9377.07
9226.78
9076.57
8926.45
8776.41
8626.44
8476.56
8326.75
8177
8027.3
7877.64
7728.01
7578.37
7428.71
7279.02
7129.29
6979.51
6829.7
6679.92
6530.21
6380.65
6231.25
6082.03
5932.95
5784.01
5635.18
5486.46
5337.83
5189.26
5040.73
4892.22
4743.73
4595.24
4446.75
4298.27
4149.81
4001.34
3852.88
3704.42
3555.97
3407.52
3259.07
3110.63
2962.21
2813.82
2665.47
2517.16
2368.91
2220.7
2072.53
1924.44
1776.43
1628.5
1480.65
1332.93
1185.35
1037.91
890.662
743.608
596.809
450.244
303.97
157.9
42.9783
0.0608577
-0.121071
-0.300058
-0.481773
-0.661617
-0.843544
-1.02473
-1.20669
-1.38867
-1.57089
-1.75327
14631.8
14484.5
14337
14189.2
14041.2
13893
13744.5
13595.8
13446.7
13297.3
13147.6
12997.5
12847.1
12696.4
12545.5
12394.5
12243.4
12092.3
11941.1
11790
11638.9
11487.7
11336.6
11185.5
11034.5
10883.4
10732.4
10581.4
10430.5
10279.6
10128.8
9977.99
9827.29
9676.65
9526.1
9375.63
9225.24
9074.94
8924.74
8774.62
8624.6
8474.66
8324.8
8175.01
8025.29
7875.62
7725.98
7576.37
7426.77
7277.16
7127.54
6977.92
6828.31
6678.73
6529.24
6379.85
6230.61
6081.49
5932.51
5783.64
5634.88
5486.21
5337.61
5189.06
5040.57
4892.1
4743.65
4595.22
4446.79
4298.38
4149.97
4001.57
3853.17
3704.79
3556.41
3408.04
3259.68
3111.33
2963.01
2814.72
2666.46
2518.25
2370.09
2221.99
2073.95
1925.98
1778.11
1630.32
1482.67
1335.13
1187.74
1040.53
893.522
746.749
600.269
454.082
308.277
162.784
46.0284
0.05284
-0.121104
-0.302409
-0.48146
-0.661435
-0.842932
-1.02391
-1.20579
-1.38761
-1.5697
-1.75191
14631.2
14483.9
14336.3
14188.5
14040.5
13892.2
13743.7
13594.9
13445.9
13296.5
13146.8
12996.8
12846.6
12696
12545.3
12394.4
12243.4
12092.4
11941.3
11790.1
11638.9
11487.8
11336.6
11185.4
11034.2
10883.1
10731.9
10580.8
10429.8
10278.8
10127.8
9976.89
9826.06
9675.31
9524.64
9374.06
9223.58
9073.19
8922.91
8772.72
8622.64
8472.65
8322.75
8172.94
8023.2
7873.53
7723.91
7574.34
7424.8
7275.28
7125.78
6976.3
6826.85
6677.46
6528.14
6378.92
6229.81
6080.82
5931.94
5783.16
5634.47
5485.86
5337.31
5188.82
5040.38
4891.96
4743.56
4595.19
4446.82
4298.47
4150.12
4001.79
3853.47
3705.16
3556.85
3408.56
3260.29
3112.03
2963.8
2815.61
2667.45
2519.34
2371.28
2223.28
2075.35
1927.5
1779.74
1632.09
1484.56
1337.17
1189.95
1042.92
896.125
749.587
603.38
457.521
312.13
167.167
48.7485
0.0461861
-0.120921
-0.304577
-0.481379
-0.661375
-0.84258
-1.02337
-1.20517
-1.38684
-1.5688
-1.75088
14630.7
14483.4
14335.8
14188
14040
13891.7
13743.1
13594.3
13445.3
13295.9
13146.3
12996.4
12846.2
12695.8
12545.2
12394.4
12243.5
12092.4
11941.3
11790.2
11639
11487.7
11336.5
11185.2
11033.9
10882.7
10731.4
10580.2
10429
10277.8
10126.7
9975.68
9824.72
9673.85
9523.06
9372.37
9221.79
9071.31
8920.95
8770.69
8620.55
8470.52
8320.59
8170.76
8021.02
7871.36
7721.77
7572.25
7422.78
7273.35
7123.96
6974.62
6825.32
6676.09
6526.94
6377.87
6228.9
6080.03
5931.25
5782.57
5633.96
5485.42
5336.95
5188.52
5040.13
4891.77
4743.43
4595.12
4446.82
4298.53
4150.25
4001.99
3853.73
3705.49
3557.26
3409.05
3260.86
3112.68
2964.54
2816.43
2668.36
2520.34
2372.37
2224.46
2076.63
1928.88
1781.23
1633.69
1486.29
1339.03
1191.95
1045.07
898.445
752.094
606.094
460.475
315.364
170.783
50.8436
0.0432365
-0.120889
-0.305168
-0.481267
-0.661247
-0.842298
-1.02297
-1.2047
-1.38625
-1.56813
-1.7501
14630.4
14483.1
14335.5
14187.7
14039.6
13891.3
13742.8
13594
13444.9
13295.6
13146
12996.1
12846
12695.6
12545.1
12394.4
12243.5
12092.5
11941.4
11790.2
11639
11487.7
11336.3
11184.9
11033.6
10882.2
10730.8
10579.4
10428.1
10276.8
10125.5
9974.35
9823.26
9672.25
9521.34
9370.54
9219.85
9069.28
8918.84
8768.52
8618.32
8468.25
8318.3
8168.46
8018.72
7869.09
7719.54
7570.07
7420.68
7271.35
7122.07
6972.86
6823.71
6674.63
6525.63
6376.71
6227.87
6079.12
5930.46
5781.87
5633.36
5484.9
5336.5
5188.15
5039.82
4891.53
4743.26
4595.01
4446.78
4298.56
4150.35
4002.15
3853.97
3705.8
3557.64
3409.5
3261.38
3113.29
2965.22
2817.19
2669.2
2521.26
2373.38
2225.56
2077.81
1930.15
1782.59
1635.15
1487.84
1340.69
1193.72
1046.96
900.46
754.242
608.381
462.911
317.946
173.554
52.2497
0.0453646
-0.120861
-0.303839
-0.481211
-0.660936
-0.841943
-1.02259
-1.20429
-1.38579
-1.56762
-1.74953
14630.3
14483
14335.4
14187.6
14039.5
13891.2
13742.6
13593.8
13444.8
13295.4
13145.8
12996
12845.9
12695.6
12545.1
12394.4
12243.6
12092.6
11941.5
11790.2
11638.9
11487.6
11336.1
11184.6
11033.1
10881.6
10730.1
10578.5
10427.1
10275.6
10124.2
9972.89
9821.65
9670.51
9519.47
9368.55
9217.75
9067.09
8916.56
8766.17
8615.93
8465.82
8315.85
8166.01
8016.29
7866.69
7717.19
7567.79
7418.48
7269.25
7120.09
6971.01
6822.01
6673.07
6524.22
6375.44
6226.74
6078.12
5929.57
5781.09
5632.67
5484.31
5335.99
5187.71
5039.47
4891.25
4743.05
4594.87
4446.7
4298.55
4150.41
4002.28
3854.17
3706.07
3557.98
3409.91
3261.87
3113.84
2965.85
2817.89
2669.98
2522.11
2374.3
2226.55
2078.88
1931.3
1783.82
1636.45
1489.22
1342.15
1195.26
1048.59
902.161
756.022
610.234
464.826
319.901
175.529
53.1066
0.0494028
-0.120525
-0.301772
-0.480737
-0.660328
-0.841405
-1.02215
-1.20386
-1.38538
-1.56722
-1.74912
14630.4
14483.1
14335.5
14187.7
14039.6
13891.3
13742.7
13593.9
13444.8
13295.5
13145.9
12996.1
12846
12695.8
12545.3
12394.6
12243.7
12092.7
11941.6
11790.3
11638.9
11487.4
11335.9
11184.3
11032.6
10880.9
10729.3
10577.6
10425.9
10274.3
10122.8
9971.28
9819.89
9668.6
9517.42
9366.37
9215.46
9064.7
8914.09
8763.64
8613.35
8463.21
8313.23
8163.39
8013.7
7864.14
7714.7
7565.38
7416.16
7267.04
7118.01
6969.06
6820.2
6671.41
6522.7
6374.07
6225.51
6077.01
5928.59
5780.22
5631.91
5483.64
5335.41
5187.22
5039.06
4890.92
4742.79
4594.69
4446.59
4298.51
4150.44
4002.38
3854.34
3706.3
3558.29
3410.29
3262.31
3114.35
2966.43
2818.54
2670.69
2522.88
2375.14
2227.46
2079.85
1932.33
1784.91
1637.6
1490.43
1343.41
1196.57
1049.94
903.552
757.441
611.667
466.253
321.293
176.855
53.6149
0.0534641
-0.119538
-0.299663
-0.479669
-0.659468
-0.840668
-1.02159
-1.20337
-1.38498
-1.56687
-1.74882
14630.8
14483.4
14335.8
14188
14039.9
13891.6
13743
13594.2
13445.1
13295.8
13146.2
12996.4
12846.3
12696
12545.5
12394.8
12244
12092.9
11941.7
11790.3
11638.9
11487.3
11335.6
11183.9
11032.1
10880.2
10728.4
10576.5
10424.7
10272.9
10121.2
9969.52
9817.95
9666.5
9515.18
9363.99
9212.97
9062.1
8911.41
8760.89
8610.55
8460.39
8310.4
8160.58
8010.93
7861.42
7712.06
7562.82
7413.71
7264.7
7115.8
6967
6818.28
6669.64
6521.08
6372.59
6224.17
6075.82
5927.52
5779.27
5631.07
5482.9
5334.78
5186.67
5038.6
4890.54
4742.5
4594.47
4446.45
4298.44
4150.44
4002.45
3854.47
3706.5
3558.55
3410.61
3262.7
3114.81
2966.94
2819.11
2671.32
2523.58
2375.89
2228.26
2080.71
1933.24
1785.86
1638.6
1491.46
1344.47
1197.65
1051.03
904.643
758.514
612.702
467.225
322.18
177.64
53.8898
0.0568819
-0.117693
-0.297712
-0.478257
-0.658338
-0.83983
-1.02093
-1.20279
-1.38456
-1.56654
-1.7486
14631.3
14483.9
14336.3
14188.5
14040.4
13892.1
13743.5
13594.6
13445.5
13296.2
13146.6
12996.8
12846.7
12696.4
12545.9
12395.2
12244.3
12093.1
11941.9
11790.4
11638.8
11487.1
11335.3
11183.4
11031.5
10879.4
10727.4
10575.4
10423.3
10271.3
10119.4
9967.57
9815.82
9664.19
9512.71
9361.38
9210.23
9059.25
8908.47
8757.89
8607.51
8457.33
8307.34
8157.55
8007.94
7858.5
7709.22
7560.09
7411.09
7262.22
7113.46
6964.8
6816.24
6667.76
6519.35
6371.02
6222.74
6074.53
5926.36
5778.24
5630.15
5482.1
5334.08
5186.08
5038.09
4890.12
4742.16
4594.21
4446.26
4298.33
4150.4
4002.48
3854.57
3706.66
3558.78
3410.9
3263.05
3115.21
2967.41
2819.63
2671.9
2524.2
2376.56
2228.98
2081.47
1934.03
1786.69
1639.45
1492.33
1345.35
1198.52
1051.88
905.453
759.264
613.371
467.785
322.61
177.911
53.9419
0.0598088
-0.115199
-0.29577
-0.476569
-0.657076
-0.838785
-1.02009
-1.20211
-1.38409
-1.56621
-1.74843
14632
14484.7
14337.1
14189.2
14041.1
13892.7
13744.1
13595.3
13446.2
13296.9
13147.3
12997.4
12847.3
12697
12546.4
12395.7
12244.7
12093.5
11942.1
11790.5
11638.8
11487
11335
11183
11030.8
10878.6
10726.3
10574.1
10421.8
10269.6
10117.5
9965.41
9813.47
9661.65
9509.99
9358.51
9207.21
9056.13
8905.25
8754.61
8604.19
8453.99
8304.02
8154.26
8004.71
7855.35
7706.17
7557.16
7408.29
7259.57
7110.97
6962.47
6814.07
6665.76
6517.52
6369.34
6221.22
6073.15
5925.13
5777.14
5629.18
5481.24
5333.33
5185.43
5037.54
4889.66
4741.78
4593.91
4446.05
4298.19
4150.33
4002.48
3854.63
3706.79
3558.96
3411.15
3263.35
3115.57
2967.82
2820.09
2672.4
2524.76
2377.16
2229.61
2082.13
1934.72
1787.39
1640.16
1493.04
1346.04
1199.19
1052.5
906.003
759.719
613.704
467.963
322.608
177.678
53.745
0.0628445
-0.112079
-0.293801
-0.4746
-0.655627
-0.837458
-1.01918
-1.20133
-1.38357
-1.56586
-1.74829
14632.9
14485.6
14338
14190.1
14042
13893.7
13745
13596.2
13447.1
13297.7
13148.1
12998.2
12848.1
12697.7
12547.1
12396.3
12245.2
12093.9
11942.4
11790.7
11638.9
11486.9
11334.7
11182.4
11030.1
10877.6
10725.2
10572.7
10420.2
10267.7
10115.3
9963.03
9810.86
9658.84
9506.99
9355.33
9203.89
9052.68
8901.71
8751
8600.54
8450.34
8300.39
8150.69
8001.21
7851.95
7702.89
7554.01
7405.3
7256.74
7108.31
6959.99
6811.77
6663.64
6515.57
6367.56
6219.61
6071.69
5923.82
5775.97
5628.14
5480.33
5332.53
5184.73
5036.94
4889.16
4741.37
4593.59
4445.8
4298.01
4150.22
4002.44
3854.66
3706.88
3559.11
3411.35
3263.6
3115.88
2968.17
2820.49
2672.85
2525.24
2377.67
2230.15
2082.7
1935.3
1787.98
1640.75
1493.61
1346.58
1199.68
1052.91
906.319
759.907
613.728
467.785
322.188
176.935
53.2318
0.0664778
-0.108574
-0.29153
-0.472261
-0.65393
-0.835929
-1.01812
-1.20045
-1.383
-1.56548
-1.74818
14634.1
14486.7
14339.1
14191.3
14043.1
13894.8
13746.1
13597.3
13448.1
13298.8
13149.1
12999.2
12849
12698.6
12547.9
12397
12245.8
12094.4
11942.8
11791
11639
11486.8
11334.4
11181.9
11029.3
10876.6
10723.9
10571.1
10418.3
10265.6
10112.9
9960.39
9807.97
9655.71
9503.65
9351.8
9200.2
9048.86
8897.79
8747.02
8596.53
8446.33
8296.42
8146.78
7997.4
7848.26
7699.34
7550.62
7402.08
7253.71
7105.48
6957.35
6809.33
6661.39
6513.51
6365.68
6217.9
6070.16
5922.43
5774.73
5627.04
5479.36
5331.68
5184
5036.31
4888.62
4740.93
4593.23
4445.52
4297.81
4150.09
4002.37
3854.65
3706.93
3559.22
3411.51
3263.82
3116.14
2968.48
2820.84
2673.23
2525.65
2378.12
2230.62
2083.18
1935.79
1788.47
1641.22
1494.05
1346.97
1200
1053.15
906.43
759.86
613.479
467.283
321.376
175.693
52.3583
0.0710688
-0.104769
-0.288776
-0.469461
-0.652039
-0.83423
-1.01693
-1.19947
-1.38237
-1.56507
-1.74807
14635.5
14488.1
14340.5
14192.6
14044.5
13896.1
13747.5
13598.6
13449.4
13300
13150.3
13000.4
12850.2
12699.7
12548.9
12397.9
12246.6
12095.1
11943.3
11791.3
11639.1
11486.7
11334.1
11181.3
11028.5
10875.5
10722.4
10569.4
10416.3
10263.3
10110.3
9957.46
9804.76
9652.24
9499.93
9347.88
9196.1
9044.61
8893.45
8742.6
8592.1
8441.92
8292.06
8142.5
7993.24
7844.24
7695.48
7546.96
7398.63
7250.47
7102.45
6954.55
6806.74
6659.01
6511.33
6363.7
6216.11
6068.54
5920.99
5773.44
5625.89
5478.34
5330.79
5183.22
5035.65
4888.06
4740.46
4592.84
4445.21
4297.58
4149.93
4002.27
3854.62
3706.96
3559.3
3411.64
3263.99
3116.36
2968.74
2821.14
2673.56
2526.01
2378.49
2231.01
2083.58
1936.19
1788.86
1641.58
1494.38
1347.24
1200.19
1053.23
906.372
759.619
613.003
466.508
320.22
174.034
51.1462
0.0766563
-0.100538
-0.285462
-0.466454
-0.649943
-0.83239
-1.01562
-1.1984
-1.38171
-1.56463
-1.74798
14637
14489.7
14342.1
14194.2
14046
13897.7
13749
13600.1
13450.9
13301.5
13151.8
13001.8
12851.5
12700.9
12550.1
12399
12247.6
12095.9
11943.9
11791.7
11639.3
11486.6
11333.8
11180.7
11027.6
10874.3
10720.9
10567.5
10414
10260.7
10107.4
9954.18
9801.16
9648.35
9495.78
9343.49
9191.51
9039.87
8888.6
8737.69
8587.17
8437.02
8287.24
8137.8
7988.68
7839.86
7691.31
7543.01
7394.92
7247
7099.23
6951.56
6803.99
6656.49
6509.04
6361.63
6214.23
6066.85
5919.47
5772.09
5624.7
5477.29
5329.87
5182.42
5034.95
4887.47
4739.96
4592.43
4444.88
4297.32
4149.74
4002.15
3854.55
3706.95
3559.34
3411.73
3264.13
3116.53
2968.95
2821.38
2673.83
2526.31
2378.81
2231.34
2083.91
1936.51
1789.16
1641.86
1494.61
1347.41
1200.27
1053.19
906.183
759.232
612.36
465.535
318.814
172.086
49.6997
0.0829816
-0.0959794
-0.28173
-0.463401
-0.647681
-0.830503
-1.01422
-1.19732
-1.381
-1.56417
-1.74788
14638.8
14491.5
14343.9
14196
14047.8
13899.4
13750.8
13601.8
13452.6
13303.2
13153.4
13003.4
12853
12702.4
12551.4
12400.2
12248.6
12096.8
11944.7
11792.3
11639.6
11486.6
11333.5
11180.1
11026.6
10872.9
10719.1
10565.3
10411.5
10257.7
10104.1
9950.5
9797.13
9643.98
9491.11
9338.55
9186.35
9034.55
8883.16
8732.2
8581.68
8431.59
8281.9
8132.61
7983.68
7835.07
7686.77
7538.74
7390.92
7243.28
7095.78
6948.4
6801.09
6653.85
6506.64
6359.45
6212.28
6065.1
5917.91
5770.7
5623.46
5476.2
5328.91
5181.59
5034.24
4886.86
4739.44
4592
4444.54
4297.05
4149.54
4002.01
3854.47
3706.91
3559.35
3411.79
3264.23
3116.67
2969.12
2821.58
2674.06
2526.55
2379.07
2231.61
2084.18
1936.77
1789.4
1642.07
1494.77
1347.5
1200.27
1053.07
905.908
758.756
611.622
464.462
317.294
170.01
48.2045
0.089717
-0.091432
-0.277802
-0.460494
-0.645357
-0.828642
-1.0128
-1.19624
-1.38029
-1.56368
-1.74779
14640.9
14493.5
14345.9
14198
14049.9
13901.4
13752.8
13603.8
13454.6
13305.1
13155.3
13005.2
12854.8
12704.1
12553
12401.6
12249.9
12097.9
11945.5
11792.9
11639.9
11486.7
11333.2
11179.4
11025.5
10871.4
10717.2
10563
10408.7
10254.5
10100.4
9946.36
9792.58
9639.05
9485.83
9332.97
9180.53
9028.54
8877.04
8726.03
8575.53
8425.52
8275.98
8126.87
7978.17
7829.84
7681.84
7534.11
7386.61
7239.3
7092.11
6945.03
6798.03
6651.06
6504.12
6357.19
6210.24
6063.28
5916.29
5769.26
5622.2
5475.09
5327.94
5180.75
5033.51
4886.23
4738.91
4591.56
4444.17
4296.75
4149.31
4001.84
3854.35
3706.85
3559.34
3411.82
3264.3
3116.77
2969.25
2821.74
2674.24
2526.75
2379.28
2231.82
2084.39
1936.98
1789.59
1642.22
1494.87
1347.54
1200.22
1052.91
905.588
758.247
610.869
463.396
315.817
168.04
46.7975
0.0967374
-0.0873983
-0.274025
-0.457912
-0.643095
-0.826882
-1.01143
-1.19522
-1.37958
-1.56322
-1.7477
14643.1
14495.8
14348.2
14200.3
14052.1
13903.7
13755
13606.1
13456.8
13307.3
13157.4
13007.3
12856.8
12706
12554.8
12403.3
12251.4
12099.2
11946.6
11793.7
11640.4
11486.8
11332.9
11178.8
11024.4
10869.8
10715.1
10560.3
10405.6
10250.8
10096.2
9941.68
9787.41
9633.43
9479.8
9326.59
9173.87
9021.69
8870.08
8719.05
8568.59
8418.71
8269.36
8120.51
7972.1
7824.1
7676.46
7529.1
7381.97
7235.03
7088.21
6941.47
6794.8
6648.15
6501.5
6354.84
6208.15
6061.41
5914.63
5767.8
5620.91
5473.96
5326.95
5179.89
5032.77
4885.6
4738.38
4591.11
4443.8
4296.45
4149.07
4001.66
3854.23
3706.77
3559.3
3411.82
3264.33
3116.84
2969.35
2821.86
2674.38
2526.91
2379.45
2232
2084.56
1937.14
1789.73
1642.33
1494.93
1347.54
1200.14
1052.72
905.273
757.761
610.172
462.434
314.512
166.339
45.63
0.103439
-0.0843549
-0.270667
-0.455683
-0.640961
-0.825296
-1.01014
-1.19425
-1.37892
-1.5628
-1.74759
14645.6
14498.3
14350.7
14202.8
14054.6
13906.2
13757.5
13608.5
13459.3
13309.7
13159.8
13009.6
12859
12708.1
12556.8
12405.2
12253.1
12100.7
11947.8
11794.6
11641
11487
11332.7
11178
11023.1
10868
10712.8
10557.4
10402
10246.6
10091.4
9936.29
9781.45
9626.92
9472.8
9319.18
9166.14
9013.77
8862.07
8711.06
8560.72
8411.03
8261.95
8113.41
7965.39
7817.83
7670.63
7523.71
7377.03
7230.51
7084.08
6937.72
6791.41
6645.1
6498.78
6352.41
6205.99
6059.51
5912.96
5766.32
5619.62
5472.83
5325.97
5179.04
5032.04
4884.97
4737.84
4590.66
4443.42
4296.14
4148.82
4001.47
3854.08
3706.67
3559.24
3411.8
3264.34
3116.88
2969.41
2821.95
2674.48
2527.03
2379.57
2232.13
2084.69
1937.26
1789.83
1642.4
1494.97
1347.53
1200.06
1052.55
904.993
757.344
609.587
461.64
313.464
165.04
44.7604
0.108508
-0.0822705
-0.267871
-0.453766
-0.639116
-0.823931
-1.009
-1.19341
-1.37833
-1.56242
-1.7475
14648.4
14501
14353.4
14205.5
14057.3
13908.9
13760.2
13611.3
13462
13312.4
13162.5
13012.2
12861.6
12710.6
12559.2
12407.3
12255.1
12102.4
11949.2
11795.7
11641.7
11487.2
11332.4
11177.3
11021.8
10866
10710.1
10554
10397.9
10241.8
10085.8
9929.95
9774.39
9619.24
9464.58
9310.5
9157.13
9004.52
8852.73
8701.77
8551.62
8402.22
8253.5
8105.41
7957.9
7810.88
7664.22
7517.85
7371.68
7225.66
7079.72
6933.81
6787.91
6641.99
6496
6349.94
6203.8
6057.58
5911.26
5764.84
5618.32
5471.7
5325
5178.2
5031.31
4884.35
4737.31
4590.21
4443.05
4295.83
4148.57
4001.27
3853.93
3706.56
3559.16
3411.75
3264.32
3116.89
2969.45
2822
2674.55
2527.11
2379.67
2232.23
2084.79
1937.35
1789.91
1642.46
1495
1347.51
1199.99
1052.42
904.778
757.028
609.154
461.074
312.744
164.198
44.2158
0.112306
-0.0809794
-0.265506
-0.45218
-0.637632
-0.822776
-1.008
-1.19269
-1.37786
-1.5621
-1.74739
14651.4
14504
14356.4
14208.5
14060.3
13911.9
13763.2
13614.3
13465
13315.4
13165.4
13015.1
12864.4
12713.3
12561.8
12409.8
12257.3
12104.3
11950.9
11797
11642.5
11487.6
11332.3
11176.5
11020.3
10863.9
10707.1
10550.2
10393.2
10236.1
10079.2
9922.5
9766.1
9610.14
9454.76
9300.12
9146.35
8993.51
8841.67
8690.84
8540.98
8391.99
8243.8
8096.32
7949.48
7803.11
7657.11
7511.38
7365.82
7220.4
7075.04
6929.68
6784.27
6638.78
6493.19
6347.48
6201.64
6055.67
5909.58
5763.36
5617.03
5470.59
5324.03
5177.37
5030.6
4883.75
4736.8
4589.77
4442.68
4295.52
4148.32
4001.06
3853.76
3706.43
3559.07
3411.69
3264.29
3116.87
2969.45
2822.03
2674.6
2527.16
2379.73
2232.3
2084.86
1937.42
1789.97
1642.51
1495.02
1347.51
1199.95
1052.34
904.645
756.833
608.896
460.758
312.376
163.825
44.0148
0.114128
-0.0801525
-0.263739
-0.451069
-0.63642
-0.821813
-1.00721
-1.19205
-1.37747
-1.56186
-1.74728
14654.6
14507.2
14359.6
14211.7
14063.6
13915.2
13766.5
13617.5
13468.3
13318.7
13168.7
13018.3
12867.6
12716.4
12564.7
12412.5
12259.8
12106.6
11952.8
11798.5
11643.6
11488.1
11332.1
11175.7
11018.7
10861.4
10703.7
10545.6
10387.5
10229.4
10071.4
9913.66
9756.21
9599.25
9443
9287.68
9133.46
8980.43
8828.64
8678.08
8528.67
8380.3
8232.82
8086.14
7940.1
7794.52
7649.29
7504.3
7359.47
7214.74
7070.03
6925.27
6780.41
6635.42
6490.28
6344.96
6199.47
6053.8
5907.97
5761.96
5615.81
5469.52
5323.11
5176.57
5029.92
4883.17
4736.3
4589.35
4442.33
4295.23
4148.07
4000.85
3853.59
3706.29
3558.96
3411.6
3264.23
3116.84
2969.43
2822.02
2674.61
2527.19
2379.77
2232.34
2084.91
1937.47
1790.02
1642.55
1495.06
1347.53
1199.95
1052.31
904.598
756.766
608.816
460.687
312.333
163.879
44.1242
0.11391
-0.0797517
-0.262874
-0.450369
-0.635576
-0.821121
-1.00668
-1.19157
-1.37713
-1.56171
-1.74718
14658
14510.6
14363
14215.2
14067.1
13918.7
13770.1
13621.1
13471.8
13322.2
13172.3
13021.9
12871.1
12719.8
12568
12415.6
12262.7
12109.2
11955
11800.3
11644.8
11488.8
11332.1
11174.8
11017
10858.5
10699.6
10540.3
10380.9
10221.5
10062.2
9903.21
9744.55
9586.46
9429.21
9273.1
9118.36
8965.14
8813.48
8663.35
8514.61
8367.08
8220.58
8074.91
7929.84
7785.18
7640.82
7496.67
7352.64
7208.66
7064.66
6920.56
6776.32
6631.9
6487.26
6342.38
6197.27
6051.93
5906.37
5760.61
5614.67
5468.56
5322.27
5175.85
5029.3
4882.63
4735.85
4588.96
4441.99
4294.94
4147.83
4000.65
3853.42
3706.15
3558.84
3411.51
3264.15
3116.78
2969.39
2822
2674.6
2527.19
2379.78
2232.36
2084.94
1937.51
1790.06
1642.59
1495.1
1347.57
1199.99
1052.35
904.637
756.817
608.896
460.83
312.563
164.28
44.4795
0.111959
-0.0796446
-0.26288
-0.450007
-0.635172
-0.82069
-1.00633
-1.19131
-1.37686
-1.56165
-1.74709
14661.7
14514.3
14366.7
14218.9
14070.8
13922.5
13773.9
13625
13475.7
13326.1
13176.2
13025.8
12874.9
12723.5
12571.6
12419.1
12266
12112.1
11957.6
11802.4
11646.4
11489.6
11332.2
11173.9
11014.9
10855.2
10694.9
10534.1
10373.2
10212.3
10051.7
9891.27
9731.15
9571.65
9413.18
9256.13
9100.81
8947.41
8796
8646.48
8498.68
8352.3
8207.07
8062.65
7918.75
7775.17
7631.79
7488.54
7345.37
7202.2
7058.98
6915.62
6772.07
6628.25
6484.16
6339.75
6195.04
6050.06
5904.8
5759.3
5613.58
5467.64
5321.52
5175.22
5028.77
4882.17
4735.44
4588.61
4441.69
4294.68
4147.6
4000.45
3853.25
3706
3558.71
3411.39
3264.05
3116.7
2969.32
2821.94
2674.56
2527.16
2379.76
2232.36
2084.95
1937.53
1790.09
1642.63
1495.15
1347.63
1200.06
1052.44
904.753
756.967
609.107
461.136
313.005
164.912
44.9933
0.108528
-0.0796605
-0.263624
-0.449922
-0.63514
-0.820509
-1.00613
-1.19119
-1.37668
-1.56167
-1.74704
14665.6
14518.2
14370.7
14222.9
14074.8
13926.5
13778
13629.1
13479.9
13330.4
13180.4
13030
12879.1
12727.7
12575.7
12423
12269.6
12115.5
11960.6
11804.8
11648.2
11490.7
11332.3
11172.9
11012.5
10851.4
10689.5
10527
10364.4
10201.9
10039.8
9877.77
9715.94
9554.8
9394.9
9236.77
9080.8
8927.25
8776.19
8627.51
8480.94
8336.05
8192.38
8049.51
7907.06
7764.72
7622.38
7480.07
7337.77
7195.45
7053.04
6910.47
6767.66
6624.54
6481.05
6337.16
6192.89
6048.25
5903.28
5758.03
5612.53
5466.79
5320.83
5174.66
5028.31
4881.79
4735.12
4588.32
4441.43
4294.44
4147.39
4000.26
3853.08
3705.84
3558.57
3411.27
3263.94
3116.59
2969.23
2821.87
2674.49
2527.11
2379.73
2232.34
2084.94
1937.54
1790.12
1642.68
1495.21
1347.71
1200.17
1052.57
904.928
757.191
609.411
461.542
313.575
165.644
45.568
0.105134
-0.0796906
-0.264675
-0.449881
-0.635428
-0.820503
-1.00607
-1.1912
-1.37659
-1.56173
-1.74704
14669.7
14522.3
14374.8
14227
14079.1
13930.8
13782.3
13633.5
13484.4
13334.9
13185
13034.7
12883.8
12732.3
12580.2
12427.4
12273.8
12119.3
11964
11807.7
11650.4
11492
11332.4
11171.6
11009.8
10847.1
10683.5
10519.2
10354.5
10190.2
10026.6
9862.97
9699.21
9536.18
9374.64
9215.26
9058.58
8904.9
8754.31
8606.66
8461.59
8318.49
8176.71
8035.8
7895.15
7754.19
7612.93
7471.53
7330.06
7188.56
7046.96
6905.2
6763.17
6620.79
6477.96
6334.65
6190.84
6046.58
5901.91
5756.9
5611.59
5466.01
5320.2
5174.15
5027.91
4881.48
4734.86
4588.1
4441.23
4294.26
4147.21
4000.09
3852.91
3705.69
3558.42
3411.13
3263.81
3116.47
2969.12
2821.76
2674.4
2527.03
2379.66
2232.29
2084.91
1937.53
1790.13
1642.72
1495.28
1347.81
1200.3
1052.74
905.143
757.46
609.766
461.984
314.184
166.358
46.1046
0.1032
-0.0798279
-0.265733
-0.449962
-0.635789
-0.820601
-1.0061
-1.19129
-1.37659
-1.56182
-1.74711
14674
14526.7
14379.1
14231.4
14083.5
13935.3
13786.9
13638.2
13489.2
13339.8
13190
13039.7
12888.8
12737.4
12585.2
12432.3
12278.5
12123.7
11967.9
11811
11652.9
11493.3
11332.3
11170.1
11006.9
10842.7
10677.1
10510.5
10343.5
10177.2
10012.6
9847.47
9681.52
9516.3
9352.86
9192.08
9034.62
8880.83
8730.8
8584.33
8440.9
8299.81
8160.29
8021.89
7883.53
7744.11
7603.88
7463.29
7322.56
7181.78
7040.95
6899.97
6758.74
6617.11
6474.98
6332.27
6188.95
6045.08
5900.71
5755.94
5610.83
5465.4
5319.7
5173.75
5027.57
4881.21
4734.65
4587.93
4441.09
4294.13
4147.08
3999.95
3852.76
3705.54
3558.27
3410.98
3263.66
3116.32
2968.98
2821.63
2674.28
2526.92
2379.57
2232.22
2084.87
1937.51
1790.14
1642.75
1495.34
1347.91
1200.44
1052.92
905.385
757.743
610.144
462.403
314.769
166.949
46.5673
0.101144
-0.07982
-0.266682
-0.450025
-0.636174
-0.820713
-1.00621
-1.19143
-1.37669
-1.56196
-1.74724
14678.5
14531.2
14383.7
14236
14088.2
13940.1
13791.8
13643.2
13494.3
13345
13195.3
13045.1
12894.3
12742.9
12590.7
12437.7
12283.7
12128.7
11972.4
11814.8
11655.7
11494.7
11332.2
11168.5
11003.8
10838.1
10670.4
10501.2
10331.2
10162.6
9998.24
9832.11
9663.58
9495.81
9330.2
9167.86
9009.56
8855.71
8706.31
8561.07
8419.3
8280.23
8143.24
8008.1
7872.9
7735.13
7595.76
7455.79
7315.63
7175.46
7035.28
6895.03
6754.55
6613.68
6472.25
6330.15
6187.31
6043.8
5899.73
5755.2
5610.27
5464.98
5319.38
5173.49
5027.37
4881.03
4734.48
4587.78
4440.96
4294.02
4146.97
3999.84
3852.64
3705.39
3558.11
3410.81
3263.49
3116.15
2968.81
2821.47
2674.12
2526.78
2379.45
2232.12
2084.79
1937.46
1790.12
1642.77
1495.4
1348.01
1200.59
1053.11
905.641
758.023
610.515
462.774
315.283
167.344
46.9398
0.0994543
-0.0796901
-0.267451
-0.450106
-0.636583
-0.820858
-1.00643
-1.19161
-1.37685
-1.56214
-1.74743
14683.2
14535.8
14388.4
14240.8