/*--------------------------------*- C++ -*----------------------------------*\
| =========                 |                                                 |
| \\      /  F ield         | OpenFOAM: The Open Source CFD Toolbox           |
|  \\    /   O peration     | Version:  v2106                                 |
|   \\  /    A nd           | Website:  www.openfoam.com                      |
|    \\/     M anipulation  |                                                 |
\*---------------------------------------------------------------------------*/
FoamFile
{
    version     2.0;
    format      ascii;
    arch        "LSB;label=32;scalar=64";
    class       volScalarField;
    location    "2";
    object      p_rgh;
}
// * * * * * * * * * * * * * * * * * * * * * * * * * * * * * * * * * * * * * //

dimensions      [1 -1 -2 0 0 0 0];

internalField   nonuniform List<scalar> 
29678
(
-0.853813
-0.874614
-0.912351
-0.975166
-1.0769
-1.22175
-1.43958
-1.79468
-2.42478
-3.61438
-5.86012
-9.94729
-16.7674
-32.667
-41.0402
-45.7694
-49.796
-53.4432
-56.8791
-60.1979
-63.4711
-66.6895
-69.8698
-73.0012
-76.105
-79.1593
-82.1915
-85.162
-88.0878
-90.9661
-93.8112
-96.609
-99.3567
-102.06
-104.716
-107.328
-109.893
-112.417
-114.889
-117.298
-119.643
-121.917
-124.107
-126.216
-128.248
-130.2
-132.099
-133.998
-135.968
-138.162
-141.033
-145.059
-152.001
-160.074
-164.552
-167.644
-170.151
-172.391
-174.444
-176.324
-178.022
-179.533
-180.839
-181.958
-182.939
-183.859
-185.205
-187.193
-188.978
-190.719
-192.172
-193.699
-195.727
-197.669
-199.415
-201.059
-202.714
-204.449
-207.061
-209.4
-211.495
-213.82
-215.22
-216.647
-218.226
-219.883
-221.845
-223.809
-225.406
-227.404
-229.301
-231.261
-233.587
-236.138
-238.69
-240.52
-243.033
-245.871
-46.0733
0.0022609
-0.162189
-0.0473607
-0.0747583
-0.0413743
-0.0426669
-0.0324669
-0.02949
-0.024654
-0.022574
-0.0203121
-2.39917
-2.43911
-2.53815
-2.72417
-2.9989
-3.36562
-3.86135
-4.53091
-5.42264
-6.58578
-8.15934
-10.6484
-15.2052
-27.6628
-37.1697
-42.933
-47.5129
-51.5809
-55.3509
-58.9156
-62.3701
-65.7481
-69.0754
-72.3508
-75.5906
-78.7836
-81.9453
-85.0544
-88.1149
-91.1266
-94.0972
-97.0206
-99.8929
-102.715
-105.487
-108.208
-110.878
-113.5
-116.069
-118.577
-121.024
-123.408
-125.723
-127.972
-130.162
-132.298
-134.405
-136.529
-138.726
-141.081
-143.643
-146.904
-152.318
-159.3
-163.869
-167.191
-169.886
-172.25
-174.396
-176.358
-178.139
-179.734
-181.124
-182.311
-183.325
-184.247
-185.436
-187.27
-189.073
-190.805
-192.215
-193.702
-195.62
-197.492
-199.175
-200.743
-202.282
-203.85
-206.17
-208.339
-210.324
-212.508
-213.905
-215.245
-216.697
-218.219
-219.931
-221.67
-223.133
-224.795
-226.412
-227.998
-229.816
-231.826
-233.708
-235.106
-236.814
-239.526
-50.9899
-0.106514
-0.133261
-0.0480724
-0.0557883
-0.0336633
-0.0329871
-0.0260712
-0.0234602
-0.0199706
-0.0184248
-0.0168193
-3.8987
-3.96386
-4.13185
-4.42794
-4.85354
-5.42128
-6.17637
-7.18233
-8.54046
-10.4332
-13.1953
-17.2431
-22.7965
-29.8762
-36.2716
-41.5231
-46.1245
-50.3152
-54.237
-57.9756
-61.5938
-65.1269
-68.5961
-72.0111
-75.3798
-78.7027
-81.9821
-85.2133
-88.3958
-91.5297
-94.6155
-97.6507
-100.633
-103.561
-106.434
-109.251
-112.011
-114.715
-117.361
-119.946
-122.468
-124.925
-127.317
-129.647
-131.928
-134.177
-136.425
-138.722
-141.139
-143.784
-146.839
-150.6
-154.964
-159.424
-163.253
-166.391
-169.056
-171.409
-173.53
-175.455
-177.204
-178.797
-180.253
-181.602
-182.887
-184.178
-185.586
-187.179
-188.791
-190.351
-191.874
-193.447
-195.097
-196.735
-198.348
-199.948
-201.572
-203.275
-205.158
-206.981
-208.725
-210.428
-211.961
-213.412
-214.855
-216.312
-217.805
-219.289
-220.697
-222.129
-223.524
-224.878
-226.275
-227.673
-228.927
-229.9
-230.658
-231.119
-64.2226
-0.0571978
-0.0617149
-0.0376014
-0.0406534
-0.029337
-0.0271064
-0.0228122
-0.0201688
-0.0178268
-0.0160867
-0.0147969
-5.30992
-5.39967
-5.62788
-6.01822
-6.57165
-7.30456
-8.26175
-9.50286
-11.1116
-13.201
-15.893
-19.3106
-23.6373
-29.0625
-34.7826
-39.9935
-44.7108
-49.0663
-53.1632
-57.0736
-60.8516
-64.5337
-68.1426
-71.6918
-75.1896
-78.6392
-82.0422
-85.3972
-88.7032
-91.9589
-95.1633
-98.3141
-101.409
-104.446
-107.424
-110.341
-113.195
-115.988
-118.716
-121.38
-123.978
-126.511
-128.983
-131.401
-133.778
-136.134
-138.5
-140.917
-143.439
-146.131
-149.061
-152.261
-155.81
-159.621
-163.15
-166.211
-168.889
-171.274
-173.434
-175.402
-177.199
-178.842
-180.351
-181.751
-183.08
-184.393
-185.766
-187.259
-188.796
-190.307
-191.792
-193.3
-194.859
-196.426
-197.971
-199.5
-201.038
-202.595
-204.261
-205.923
-207.537
-209.096
-210.527
-211.876
-213.197
-214.51
-215.82
-217.105
-218.33
-219.52
-220.658
-221.726
-222.743
-223.694
-224.5
-225.12
-225.561
-226.051
-68.6758
-0.0258243
-0.0468665
-0.0284564
-0.0315073
-0.0241451
-0.0222113
-0.0190051
-0.0167264
-0.0147413
-0.0131741
-0.0119803
-6.60635
-6.71755
-6.99676
-7.46391
-8.12004
-8.98172
-10.0889
-11.4918
-13.2558
-15.4617
-18.1982
-21.5603
-25.6472
-30.3494
-35.2162
-39.8937
-44.3291
-48.5577
-52.6221
-56.5591
-60.3984
-64.1623
-67.8656
-71.5175
-75.1231
-78.6846
-82.2019
-85.6736
-89.0975
-92.4712
-95.7923
-99.0579
-102.265
-105.411
-108.493
-111.509
-114.458
-117.338
-120.149
-122.891
-125.563
-128.169
-130.713
-133.204
-135.655
-138.085
-140.52
-142.993
-145.543
-148.213
-151.045
-154.07
-157.295
-160.556
-163.648
-166.453
-168.971
-171.253
-173.324
-175.217
-176.96
-178.578
-180.093
-181.531
-182.922
-184.307
-185.715
-187.162
-188.616
-190.056
-191.492
-192.938
-194.395
-195.851
-197.307
-198.768
-200.247
-201.769
-203.281
-204.772
-206.236
-207.639
-208.976
-210.25
-211.473
-212.665
-213.823
-214.933
-215.977
-216.952
-217.844
-218.636
-219.32
-219.883
-220.267
-220.479
-220.483
-220.409
-74.1855
-0.0177665
-0.0349165
-0.0232977
-0.0259997
-0.0206333
-0.0190223
-0.0163224
-0.0142988
-0.0124721
-0.0109255
-0.00964448
-7.76554
-7.89424
-8.21539
-8.74353
-9.47901
-10.4369
-11.6505
-13.1594
-15.0117
-17.2616
-19.9622
-23.1546
-26.8436
-30.9383
-35.2536
-39.5903
-43.8519
-48.014
-52.0798
-56.0612
-59.9719
-63.8239
-67.6263
-71.3849
-75.1026
-78.78
-82.4159
-86.0082
-89.5536
-93.0488
-96.49
-99.8735
-103.195
-106.452
-109.641
-112.758
-115.802
-118.771
-121.665
-124.483
-127.227
-129.901
-132.508
-135.059
-137.566
-140.046
-142.52
-145.013
-147.554
-150.169
-152.879
-155.687
-158.572
-161.468
-164.266
-166.87
-169.258
-171.45
-173.471
-175.343
-177.081
-178.702
-180.225
-181.672
-183.067
-184.432
-185.802
-187.188
-188.58
-189.968
-191.351
-192.737
-194.128
-195.518
-196.905
-198.29
-199.678
-201.071
-202.455
-203.819
-205.133
-206.414
-207.637
-208.803
-209.887
-210.937
-211.937
-212.871
-213.728
-214.49
-215.143
-215.668
-216.046
-216.264
-216.273
-216.1
-215.71
-215.232
-79.6225
-0.0227423
-0.0306157
-0.0224804
-0.0231824
-0.0186324
-0.0169733
-0.0143506
-0.0124066
-0.0105664
-0.0089665
-0.00756055
-8.76972
-8.91206
-9.26656
-9.84191
-10.6369
-11.6645
-12.951
-14.5262
-16.4239
-18.679
-21.321
-24.3648
-27.7957
-31.5507
-35.524
-39.6006
-43.6957
-47.7662
-51.7966
-55.7846
-59.7331
-63.646
-67.5265
-71.3761
-75.1945
-78.9799
-82.7293
-86.4388
-90.1039
-93.7197
-97.2812
-100.783
-104.221
-107.59
-110.885
-114.104
-117.243
-120.3
-123.276
-126.168
-128.98
-131.714
-134.377
-136.975
-139.522
-142.031
-144.519
-147.006
-149.512
-152.052
-154.638
-157.267
-159.921
-162.558
-165.115
-167.528
-169.77
-171.848
-173.775
-175.567
-177.239
-178.809
-180.296
-181.718
-183.097
-184.452
-185.797
-187.138
-188.474
-189.8
-191.118
-192.433
-193.746
-195.054
-196.358
-197.659
-198.956
-200.245
-201.514
-202.752
-203.95
-205.111
-206.219
-207.271
-208.293
-209.233
-210.097
-210.877
-211.57
-212.141
-212.578
-212.861
-212.963
-212.867
-212.516
-211.931
-211.055
-209.975
-85.9375
-0.0311151
-0.0291003
-0.024152
-0.0219293
-0.0178354
-0.0158253
-0.0130703
-0.0110958
-0.00914214
-0.00742426
-0.00585924
-9.60528
-9.75796
-10.1382
-10.7493
-11.588
-12.6647
-13.9997
-15.6145
-17.5321
-19.7741
-22.3555
-25.2789
-28.5259
-32.0521
-35.7905
-39.6664
-43.6173
-47.6011
-51.5943
-55.5847
-59.5665
-63.5367
-67.493
-71.4325
-75.3519
-79.2468
-83.1121
-86.942
-90.7304
-94.4707
-98.1563
-101.781
-105.338
-108.822
-112.227
-115.549
-118.785
-121.932
-124.988
-127.953
-130.828
-133.618
-136.327
-138.962
-141.535
-144.056
-146.541
-149.003
-151.458
-153.915
-156.381
-158.852
-161.315
-163.74
-166.088
-168.321
-170.419
-172.38
-174.213
-175.93
-177.543
-179.068
-180.519
-181.91
-183.256
-184.572
-185.871
-187.157
-188.433
-189.699
-190.957
-192.207
-193.451
-194.688
-195.918
-197.138
-198.346
-199.54
-200.712
-201.855
-202.96
-204.022
-205.032
-205.985
-206.877
-207.69
-208.419
-209.05
-209.56
-209.947
-210.185
-210.248
-210.103
-209.726
-209.056
-208.093
-206.748
-205.091
-91.9976
-0.0391321
-0.0291337
-0.0265023
-0.0216158
-0.017654
-0.0152131
-0.0122525
-0.0101943
-0.00808068
-0.00622791
-0.00450677
-10.2621
-10.4225
-10.8223
-11.46
-12.3303
-13.4411
-14.8078
-16.4453
-18.3689
-20.5913
-23.1193
-25.9499
-29.0661
-32.4354
-36.0123
-39.7457
-43.589
-47.5057
-51.4701
-55.4655
-59.4805
-63.5069
-67.5379
-71.5673
-75.5886
-79.5948
-83.5787
-87.5323
-91.4477
-95.3165
-99.1305
-102.882
-106.562
-110.165
-113.683
-117.112
-120.446
-123.681
-126.817
-129.853
-132.788
-135.627
-138.375
-141.037
-143.623
-146.143
-148.61
-151.034
-153.427
-155.797
-158.147
-160.475
-162.771
-165.016
-167.184
-169.253
-171.21
-173.052
-174.784
-176.415
-177.955
-179.416
-180.81
-182.15
-183.448
-184.715
-185.96
-187.189
-188.405
-189.608
-190.8
-191.982
-193.155
-194.319
-195.471
-196.611
-197.735
-198.84
-199.92
-200.967
-201.975
-202.937
-203.845
-204.693
-205.473
-206.173
-206.782
-207.284
-207.662
-207.9
-207.973
-207.851
-207.5
-206.888
-205.945
-204.654
-202.895
-200.708
-97.3856
-0.0457881
-0.0289499
-0.02867
-0.021535
-0.0175941
-0.0148608
-0.0117182
-0.00957638
-0.00730572
-0.00533062
-0.00346994
-10.7329
-10.8989
-11.3133
-11.9707
-12.8637
-13.9983
-15.3856
-17.036
-18.9591
-21.1621
-23.6473
-26.4093
-29.4338
-32.6961
-36.1638
-39.8
-43.5692
-47.4406
-51.3898
-55.3981
-59.451
-63.537
-67.646
-71.7686
-75.8957
-80.0178
-84.1252
-88.2081
-92.2562
-96.2596
-100.208
-104.092
-107.901
-111.627
-115.263
-118.801
-122.235
-125.562
-128.778
-131.881
-134.874
-137.757
-140.535
-143.215
-145.805
-148.313
-150.75
-153.125
-155.448
-157.726
-159.962
-162.156
-164.3
-166.38
-168.387
-170.304
-172.124
-173.845
-175.47
-177.007
-178.464
-179.851
-181.179
-182.457
-183.696
-184.905
-186.091
-187.258
-188.409
-189.547
-190.673
-191.787
-192.89
-193.982
-195.06
-196.123
-197.168
-198.19
-199.185
-200.145
-201.065
-201.938
-202.756
-203.511
-204.193
-204.791
-205.293
-205.681
-205.939
-206.046
-205.976
-205.7
-205.18
-204.381
-203.231
-201.7
-199.661
-197.092
-101.476
-0.0487336
-0.0289199
-0.0292616
-0.0214228
-0.0174661
-0.0145793
-0.0113159
-0.00911045
-0.00672292
-0.00466049
-0.0026938
-11.0122
-11.1825
-11.6077
-12.2799
-13.1894
-14.3407
-15.7421
-17.4002
-19.3211
-21.5084
-23.962
-26.6762
-29.6387
-32.8308
-36.2281
-39.8029
-43.5276
-47.3763
-51.3266
-55.3598
-59.4599
-63.6131
-67.807
-72.0296
-76.2693
-80.5144
-84.7529
-88.9728
-93.1617
-97.3074
-101.398
-105.421
-109.367
-113.223
-116.982
-120.633
-124.172
-127.59
-130.886
-134.057
-137.103
-140.025
-142.828
-145.518
-148.101
-150.586
-152.983
-155.3
-157.546
-159.728
-161.85
-163.913
-165.912
-167.841
-169.695
-171.466
-173.151
-174.749
-176.263
-177.7
-179.066
-180.37
-181.622
-182.829
-184
-185.143
-186.262
-187.363
-188.448
-189.518
-190.577
-191.622
-192.656
-193.677
-194.683
-195.672
-196.641
-197.586
-198.502
-199.383
-200.223
-201.014
-201.749
-202.42
-203.015
-203.524
-203.933
-204.226
-204.384
-204.385
-204.204
-203.811
-203.165
-202.233
-200.944
-199.264
-197.079
-194.321
-104.201
-0.0466044
-0.0288922
-0.0279325
-0.0213676
-0.0171552
-0.0142242
-0.0109354
-0.00869698
-0.00625734
-0.00415257
-0.00212453
-11.0961
-11.2696
-11.7032
-12.3865
-13.3084
-14.4722
-15.884
-17.5479
-19.4675
-21.6445
-24.0777
-26.7616
-29.6859
-32.836
-36.1931
-39.7358
-43.4419
-47.2897
-51.259
-55.3317
-59.4913
-63.7226
-68.0113
-72.3437
-76.7057
-81.0836
-85.4631
-89.83
-94.1697
-98.4679
-102.71
-106.883
-110.973
-114.968
-118.856
-122.627
-126.273
-129.786
-133.163
-136.4
-139.496
-142.453
-145.274
-147.965
-150.532
-152.985
-155.332
-157.582
-159.743
-161.824
-163.829
-165.761
-167.618
-169.4
-171.106
-172.735
-174.284
-175.756
-177.154
-178.484
-179.752
-180.966
-182.133
-183.262
-184.358
-185.427
-186.475
-187.506
-188.521
-189.523
-190.512
-191.49
-192.454
-193.406
-194.342
-195.26
-196.157
-197.03
-197.873
-198.681
-199.447
-200.165
-200.826
-201.422
-201.943
-202.376
-202.708
-202.923
-203.003
-202.925
-202.663
-202.189
-201.463
-200.453
-199.091
-197.349
-195.124
-192.346
-105.861
-0.042566
-0.028556
-0.0258658
-0.0208934
-0.0165469
-0.0136863
-0.0104924
-0.00826392
-0.00584748
-0.00374809
-0.00171162
-10.9813
-11.1577
-11.5978
-12.2899
-13.2217
-14.3956
-15.8161
-17.4858
-19.4068
-21.5798
-24.0029
-26.6714
-29.5769
-32.7078
-36.0492
-39.5844
-43.295
-47.1626
-51.1693
-55.2976
-59.5311
-63.8539
-68.2503
-72.7048
-77.2016
-81.7247
-86.2578
-90.7843
-95.2874
-99.7505
-104.157
-108.49
-112.736
-116.878
-120.904
-124.801
-128.56
-132.172
-135.631
-138.933
-142.077
-145.064
-147.896
-150.58
-153.123
-155.533
-157.819
-159.992
-162.061
-164.034
-165.916
-167.712
-169.426
-171.062
-172.622
-174.107
-175.519
-176.861
-178.138
-179.355
-180.518
-181.634
-182.71
-183.753
-184.767
-185.759
-186.731
-187.688
-188.631
-189.562
-190.482
-191.391
-192.287
-193.17
-194.038
-194.889
-195.719
-196.524
-197.299
-198.04
-198.739
-199.391
-199.987
-200.519
-200.976
-201.347
-201.618
-201.774
-201.797
-201.665
-201.354
-200.836
-200.073
-199.034
-197.658
-195.922
-193.732
-191.02
-106.847
-0.0385053
-0.0275689
-0.0237564
-0.0198249
-0.0156867
-0.0129493
-0.00993844
-0.00777143
-0.00544812
-0.00340006
-0.00141192
-10.6653
-10.8442
-11.2896
-11.9892
-12.9295
-14.1125
-15.5415
-17.2183
-19.1441
-21.3191
-23.7417
-26.4079
-29.3108
-32.4414
-35.7879
-39.3366
-43.0725
-46.9798
-51.0422
-55.2434
-59.5671
-63.9969
-68.5162
-73.1078
-77.7545
-82.438
-87.14
-91.8415
-96.5233
-101.166
-105.751
-110.259
-114.672
-118.974
-123.148
-127.18
-131.059
-134.774
-138.317
-141.684
-144.873
-147.885
-150.722
-153.39
-155.898
-158.254
-160.469
-162.553
-164.518
-166.374
-168.125
-169.778
-171.345
-172.832
-174.242
-175.58
-176.851
-178.059
-179.209
-180.307
-181.359
-182.371
-183.349
-184.3
-185.227
-186.135
-187.028
-187.909
-188.778
-189.637
-190.486
-191.326
-192.155
-192.972
-193.774
-194.56
-195.326
-196.068
-196.781
-197.46
-198.1
-198.694
-199.233
-199.71
-200.115
-200.437
-200.662
-200.777
-200.764
-200.603
-200.271
-199.742
-198.982
-197.961
-196.623
-194.95
-192.845
-190.235
-107.387
-0.0350874
-0.0257242
-0.0218055
-0.0184128
-0.0145571
-0.0121108
-0.00927088
-0.00719382
-0.00502695
-0.00307277
-0.00119069
-10.1454
-10.3268
-10.7769
-11.4831
-12.4313
-13.6231
-15.0612
-16.747
-18.6814
-20.8645
-23.2952
-25.9704
-28.8847
-32.0312
-35.4005
-38.9816
-42.7619
-46.7277
-50.8644
-55.1565
-59.5882
-64.1425
-68.8022
-73.5487
-78.3631
-83.2252
-88.1143
-93.0091
-97.8878
-102.728
-107.509
-112.208
-116.805
-121.28
-125.614
-129.792
-133.798
-137.621
-141.251
-144.683
-147.915
-150.946
-153.78
-156.423
-158.884
-161.174
-163.304
-165.288
-167.136
-168.859
-170.466
-171.971
-173.384
-174.714
-175.969
-177.155
-178.279
-179.346
-180.363
-181.335
-182.269
-183.171
-184.046
-184.899
-185.734
-186.556
-187.366
-188.167
-188.96
-189.746
-190.525
-191.296
-192.058
-192.81
-193.549
-194.273
-194.979
-195.662
-196.318
-196.942
-197.528
-198.07
-198.561
-198.993
-199.356
-199.641
-199.836
-199.926
-199.897
-199.729
-199.403
-198.895
-198.172
-197.211
-195.954
-194.39
-192.415
-189.964
-107.506
-0.0321606
-0.0232302
-0.0198635
-0.016725
-0.0132948
-0.0110665
-0.00843058
-0.00651267
-0.00456053
-0.00274225
-0.00102197
-9.4189
-9.60301
-10.0574
-10.7697
-11.7257
-12.9267
-14.375
-16.0719
-18.0185
-20.2154
-22.662
-25.356
-28.294
-31.4706
-34.8785
-38.5089
-42.3514
-46.394
-50.6235
-55.0255
-59.5842
-64.2826
-69.1024
-74.0242
-79.0271
-84.089
-89.1867
-94.2964
-99.3934
-104.453
-109.45
-114.36
-119.158
-123.823
-128.333
-132.668
-136.811
-140.748
-144.469
-147.967
-151.237
-154.281
-157.103
-159.71
-162.111
-164.321
-166.351
-168.218
-169.933
-171.508
-172.959
-174.302
-175.55
-176.715
-177.806
-178.832
-179.801
-180.721
-181.597
-182.437
-183.247
-184.032
-184.797
-185.548
-186.287
-187.017
-187.741
-188.461
-189.176
-189.888
-190.596
-191.3
-191.996
-192.685
-193.364
-194.029
-194.677
-195.305
-195.909
-196.482
-197.021
-197.519
-197.969
-198.365
-198.697
-198.956
-199.132
-199.213
-199.185
-199.032
-198.736
-198.275
-197.622
-196.756
-195.621
-194.212
-192.417
-190.197
-107.133
-0.0291248
-0.0201095
-0.017896
-0.0147567
-0.0118454
-0.00973907
-0.00752237
-0.00573389
-0.00404011
-0.00239083
-0.000887455
-8.48302
-8.67006
-9.12828
-9.84657
-10.8107
-12.0212
-13.4809
-15.1912
-17.1536
-19.3692
-21.8384
-24.5602
-27.5325
-30.7516
-34.2124
-37.9078
-41.8293
-45.9667
-50.3079
-54.8394
-59.5457
-64.4095
-69.4119
-74.5321
-79.7474
-85.0336
-90.3651
-95.715
-101.056
-106.359
-111.596
-116.74
-121.762
-126.637
-131.339
-135.846
-140.137
-144.197
-148.012
-151.575
-154.881
-157.931
-160.729
-163.286
-165.612
-167.724
-169.636
-171.368
-172.929
-174.336
-175.615
-176.781
-177.851
-178.838
-179.754
-180.61
-181.416
-182.179
-182.907
-183.607
-184.286
-184.948
-185.599
-186.242
-186.881
-187.517
-188.153
-188.789
-189.426
-190.063
-190.7
-191.336
-191.969
-192.596
-193.216
-193.825
-194.42
-194.997
-195.552
-196.081
-196.578
-197.037
-197.454
-197.82
-198.13
-198.374
-198.544
-198.628
-198.617
-198.496
-198.249
-197.861
-197.306
-196.568
-195.597
-194.39
-192.837
-190.94
-106.136
-0.0254939
-0.0166044
-0.0156223
-0.0124173
-0.0101488
-0.00821058
-0.00646466
-0.00485511
-0.00346605
-0.00200855
-0.000773218
-7.33463
-7.52483
-7.98665
-8.71085
-9.68324
-10.9039
-12.3759
-14.1015
-16.0827
-18.3214
-20.8192
-23.5763
-26.5923
-29.8653
-33.3919
-37.167
-41.1839
-45.4338
-49.906
-54.5876
-59.4635
-64.5162
-69.7261
-75.0708
-80.526
-86.065
-91.6593
-97.2789
-102.893
-108.469
-113.975
-119.38
-124.651
-129.759
-134.675
-139.371
-143.824
-148.016
-151.93
-155.557
-158.893
-161.939
-164.701
-167.191
-169.423
-171.416
-173.189
-174.757
-176.14
-177.362
-178.448
-179.419
-180.294
-181.088
-181.816
-182.49
-183.121
-183.718
-184.289
-184.842
-185.382
-185.916
-186.447
-186.978
-187.512
-188.051
-188.596
-189.147
-189.705
-190.267
-190.834
-191.403
-191.973
-192.542
-193.105
-193.661
-194.205
-194.735
-195.246
-195.734
-196.194
-196.621
-197.01
-197.355
-197.649
-197.887
-198.06
-198.16
-198.177
-198.103
-197.923
-197.627
-197.194
-196.615
-195.846
-194.892
-193.649
-192.182
-104.413
-0.0209047
-0.0127986
-0.0128687
-0.00961762
-0.00825795
-0.00651088
-0.00527325
-0.00387817
-0.00283811
-0.00159881
-0.00066858
-5.97032
-6.16385
-6.62901
-7.35899
-8.33967
-9.5707
-11.056
-12.7982
-14.8006
-17.0661
-19.5973
-22.3963
-25.4644
-28.8013
-32.4057
-36.2744
-40.4024
-44.7826
-49.4055
-54.2589
-59.3283
-64.5958
-70.0409
-75.6398
-81.3662
-87.1907
-93.0817
-99.0055
-104.927
-110.81
-116.619
-122.317
-127.868
-133.237
-138.39
-143.297
-147.928
-152.261
-156.278
-159.969
-163.328
-166.358
-169.068
-171.47
-173.585
-175.433
-177.039
-178.415
-179.591
-180.602
-181.472
-182.226
-182.885
-183.468
-183.992
-184.469
-184.914
-185.334
-185.739
-186.136
-186.531
-186.93
-187.335
-187.75
-188.177
-188.616
-189.068
-189.533
-190.011
-190.499
-190.996
-191.5
-192.009
-192.519
-193.029
-193.534
-194.032
-194.518
-194.988
-195.439
-195.867
-196.266
-196.633
-196.962
-197.248
-197.486
-197.669
-197.793
-197.849
-197.832
-197.733
-197.544
-197.253
-196.856
-196.322
-195.667
-194.805
-193.841
-102.001
-0.0153173
-0.00856786
-0.00955506
-0.00661014
-0.00616147
-0.00467109
-0.00396526
-0.00280599
-0.00218301
-0.00116523
-0.000569713
-4.38641
-4.5834
-5.0516
-5.78705
-6.77579
-8.01714
-9.51587
-11.2757
-13.3008
-15.5956
-18.1643
-21.0107
-24.1378
-27.5477
-31.241
-35.2165
-39.4711
-43.9995
-48.7934
-53.8418
-59.1303
-64.6409
-70.3522
-76.2391
-82.2726
-88.4205
-94.6474
-100.916
-107.186
-113.416
-119.567
-125.596
-131.463
-137.126
-142.547
-147.688
-152.515
-157.002
-161.128
-164.879
-168.252
-171.25
-173.885
-176.174
-178.142
-179.815
-181.211
-182.363
-183.305
-184.073
-184.698
-185.209
-185.63
-185.981
-186.282
-186.547
-186.791
-187.022
-187.251
-187.483
-187.726
-187.983
-188.259
-188.554
-188.87
-189.207
-189.565
-189.943
-190.34
-190.754
-191.182
-191.622
-192.072
-192.527
-192.985
-193.443
-193.896
-194.342
-194.775
-195.194
-195.593
-195.968
-196.317
-196.635
-196.917
-197.16
-197.36
-197.513
-197.615
-197.663
-197.652
-197.58
-197.442
-197.242
-196.965
-196.64
-196.211
-195.789
-99.1038
-0.00899089
-0.00400946
-0.00582292
-0.0035567
-0.0038995
-0.00278397
-0.00256557
-0.00172446
-0.00146798
-0.000704529
-0.000476858
-2.57908
-2.77956
-3.2504
-3.99071
-4.98691
-6.23799
-7.74975
-9.52713
-11.5756
-13.9013
-16.5102
-19.4082
-22.6004
-26.0912
-29.8834
-33.9782
-38.3747
-43.0693
-48.0555
-53.3233
-58.8587
-64.6438
-70.6562
-76.869
-83.2508
-89.7659
-96.3748
-103.035
-109.701
-116.327
-122.866
-129.271
-135.497
-141.494
-147.218
-152.623
-157.67
-162.324
-166.561
-170.369
-173.742
-176.687
-179.219
-181.361
-183.145
-184.608
-185.753
-186.636
-187.303
-187.792
-188.14
-188.378
-188.533
-188.628
-188.685
-188.721
-188.748
-188.778
-188.818
-188.877
-188.96
-189.07
-189.211
-189.382
-189.584
-189.818
-190.081
-190.372
-190.688
-191.029
-191.39
-191.768
-192.16
-192.562
-192.972
-193.384
-193.796
-194.204
-194.604
-194.993
-195.367
-195.723
-196.057
-196.366
-196.648
-196.901
-197.12
-197.306
-197.457
-197.572
-197.652
-197.7
-197.718
-197.719
-197.703
-197.713
-197.731
-197.865
-96.0883
-0.00225424
0.000537927
-0.00189416
-0.00064966
-0.00157553
-0.000923153
-0.00114316
-0.000649872
-0.000757687
-0.000211114
-0.000388114
-0.544463
-0.748408
-1.22126
-1.96554
-2.96808
-4.22759
-5.75106
-7.54492
-9.6163
-11.9732
-14.6238
-17.5763
-20.8382
-24.4165
-28.3168
-32.5427
-37.096
-41.9752
-47.1757
-52.6888
-58.5015
-64.5957
-70.9482
-77.5303
-84.3078
-91.2411
-98.2857
-105.393
-112.512
-119.589
-126.573
-133.409
-140.046
-146.427
-152.498
-158.205
-163.497
-168.333
-172.685
-176.54
-179.894
-182.756
-185.147
-187.099
-188.65
-189.83
-190.686
-191.262
-191.61
-191.778
-191.809
-191.738
-191.597
-191.41
-191.2
-190.985
-190.779
-190.593
-190.434
-190.31
-190.225
-190.183
-190.184
-190.228
-190.315
-190.443
-190.61
-190.814
-191.052
-191.32
-191.615
-191.933
-192.27
-192.622
-192.985
-193.356
-193.73
-194.103
-194.472
-194.834
-195.186
-195.524
-195.846
-196.15
-196.434
-196.697
-196.937
-197.156
-197.355
-197.536
-197.705
-197.868
-198.036
-198.228
-198.456
-198.779
-199.208
-199.835
-93.2292
0.00476641
0.00457208
0.00188291
0.00193191
0.00068647
0.000837049
0.000228481
0.000372415
-5.01377e-05
0.000253511
-0.000290096
1.72108
1.51384
1.03978
0.292841
-0.714216
-1.97996
-3.51272
-5.32081
-7.41328
-9.80038
-12.4927
-15.501
-18.8358
-22.507
-26.5231
-30.8912
-35.6157
-40.698
-46.1357
-51.9219
-58.0447
-64.4863
-71.2229
-78.2238
-85.4517
-92.8628
-100.407
-108.028
-115.667
-123.265
-130.761
-138.097
-145.212
-152.042
-158.522
-164.581
-170.152
-175.183
-179.645
-183.528
-186.83
-189.565
-191.763
-193.468
-194.727
-195.573
-196.066
-196.276
-196.253
-196.048
-195.717
-195.299
-194.826
-194.325
-193.82
-193.333
-192.877
-192.459
-192.089
-191.772
-191.513
-191.312
-191.169
-191.083
-191.053
-191.075
-191.147
-191.265
-191.424
-191.622
-191.854
-192.114
-192.399
-192.703
-193.024
-193.355
-193.693
-194.035
-194.376
-194.714
-195.045
-195.368
-195.68
-195.979
-196.265
-196.538
-196.799
-197.049
-197.293
-197.535
-197.784
-198.052
-198.352
-198.714
-199.153
-199.742
-200.513
-201.536
-90.7899
0.0114662
0.00761636
0.00524201
0.00416127
0.00282059
0.00242286
0.00151936
0.00134213
0.000615567
0.000668703
-0.000184481
4.22078
4.01057
3.53624
2.78849
1.77966
0.511009
-1.02734
-2.84602
-4.95629
-7.37092
-10.1032
-13.167
-16.5761
-20.3438
-24.4824
-29.0025
-33.9121
-39.2159
-44.9145
-51.0034
-57.4721
-64.3036
-71.4735
-78.9495
-86.6913
-94.6503
-102.77
-110.986
-119.23
-127.436
-135.539
-143.479
-151.175
-158.549
-165.52
-171.996
-177.885
-183.108
-187.649
-191.515
-194.706
-197.246
-199.178
-200.562
-201.431
-201.844
-201.896
-201.659
-201.191
-200.564
-199.84
-199.049
-198.217
-197.373
-196.544
-195.76
-195.032
-194.366
-193.772
-193.254
-192.813
-192.448
-192.158
-191.94
-191.791
-191.707
-191.684
-191.717
-191.802
-191.931
-192.102
-192.308
-192.543
-192.803
-193.083
-193.378
-193.684
-193.997
-194.312
-194.628
-194.941
-195.25
-195.552
-195.847
-196.135
-196.417
-196.695
-196.972
-197.255
-197.549
-197.867
-198.222
-198.632
-199.131
-199.738
-200.534
-201.561
-202.835
-88.9383
0.016533
0.00970174
0.00804046
0.00607949
0.00466572
0.00378783
0.00266121
0.0021838
0.00119874
0.00104839
-9.10993e-05
6.95721
6.74446
6.27087
5.52489
4.51827
3.25141
1.71257
-0.111581
-2.2347
-4.67235
-7.44097
-10.5578
-14.0405
-17.9065
-22.1723
-26.8528
-31.9605
-37.5041
-43.488
-49.9108
-56.7642
-64.0324
-71.6911
-79.7067
-88.0362
-96.6265
-105.415
-114.331
-123.3
-132.254
-141.114
-149.819
-158.232
-166.23
-173.742
-180.669
-186.896
-192.35
-196.989
-200.8
-203.806
-206.057
-207.619
-208.561
-208.923
-208.795
-208.299
-207.527
-206.545
-205.418
-204.205
-202.96
-201.71
-200.485
-199.321
-198.234
-197.229
-196.304
-195.473
-194.743
-194.112
-193.579
-193.139
-192.787
-192.52
-192.331
-192.215
-192.166
-192.177
-192.242
-192.355
-192.51
-192.699
-192.918
-193.162
-193.424
-193.7
-193.986
-194.278
-194.574
-194.87
-195.165
-195.458
-195.748
-196.037
-196.325
-196.616
-196.915
-197.228
-197.563
-197.934
-198.356
-198.847
-199.447
-200.171
-201.101
-202.281
-203.677
-87.7782
0.0203291
0.010995
0.0104121
0.00767304
0.00615033
0.00494287
0.00365802
0.00290401
0.00166786
0.00137189
1.39743e-05
9.932
9.71702
9.24536
8.50495
7.50604
6.24707
4.71428
2.89142
0.762263
-1.69188
-4.49087
-7.65596
-11.2091
-15.1727
-19.5681
-24.4157
-29.7331
-35.5343
-41.8284
-48.6179
-55.898
-63.6546
-71.8644
-80.4933
-89.497
-98.8207
-108.404
-118.18
-128.066
-137.971
-147.737
-157.275
-166.519
-175.333
-183.566
-191.054
-197.672
-203.361
-208.056
-211.734
-214.448
-216.279
-217.328
-217.655
-217.348
-216.563
-215.414
-213.997
-212.399
-210.674
-208.88
-207.094
-205.358
-203.698
-202.14
-200.706
-199.397
-198.211
-197.153
-196.22
-195.399
-194.693
-194.1
-193.615
-193.23
-192.938
-192.731
-192.603
-192.545
-192.549
-192.609
-192.716
-192.864
-193.046
-193.256
-193.488
-193.738
-194
-194.272
-194.549
-194.829
-195.112
-195.395
-195.679
-195.965
-196.256
-196.555
-196.868
-197.201
-197.565
-197.972
-198.439
-198.981
-199.642
-200.429
-201.417
-202.649
-204.05
-87.3247
0.0221491
0.0118239
0.0121806
0.00878269
0.00736208
0.00590608
0.00444447
0.00354024
0.00206089
0.00160701
0.000122438
13.1454
12.9281
12.4603
11.7309
10.7469
9.50318
7.98437
6.17128
4.04489
1.58313
-1.23769
-4.44332
-8.0609
-12.1183
-16.6431
-21.6618
-27.1987
-33.2742
-39.9033
-47.0941
-54.8458
-63.1477
-71.9784
-81.3056
-91.0879
-101.283
-111.855
-122.73
-133.725
-144.671
-155.497
-166.11
-176.412
-186.224
-195.327
-203.49
-210.563
-216.444
-221.085
-224.493
-226.749
-227.976
-228.305
-227.829
-226.721
-225.15
-223.236
-221.074
-218.749
-216.329
-213.892
-211.505
-209.219
-207.062
-205.053
-203.222
-201.568
-200.083
-198.768
-197.62
-196.62
-195.759
-195.025
-194.41
-193.91
-193.517
-193.224
-193.021
-192.899
-192.847
-192.858
-192.923
-193.034
-193.183
-193.364
-193.57
-193.797
-194.038
-194.291
-194.551
-194.816
-195.086
-195.358
-195.635
-195.916
-196.205
-196.506
-196.825
-197.169
-197.547
-197.973
-198.462
-199.027
-199.709
-200.509
-201.488
-202.692
-203.996
-87.5346
0.0219294
0.0122236
0.0130394
0.00947733
0.00820427
0.00659824
0.00498065
0.00402246
0.00240547
0.00175594
0.000226615
16.5954
16.3751
15.9149
15.204
14.2434
13.0233
11.5278
9.73493
7.62234
5.16448
2.33349
-0.901532
-4.57386
-8.71788
-13.3681
-18.5588
-24.3223
-30.6871
-37.6758
-45.3034
-53.575
-62.4847
-72.0156
-82.1426
-92.8483
-104.127
-115.936
-128.048
-140.313
-152.56
-164.677
-176.562
-188.073
-199.015
-209.112
-218.071
-225.66
-231.735
-236.242
-239.224
-240.811
-241.194
-240.546
-239.059
-236.982
-234.49
-231.701
-228.707
-225.587
-222.417
-219.271
-216.217
-213.31
-210.585
-208.074
-205.8
-203.764
-201.953
-200.361
-198.972
-197.766
-196.732
-195.863
-195.137
-194.54
-194.058
-193.685
-193.413
-193.232
-193.131
-193.099
-193.127
-193.206
-193.328
-193.484
-193.668
-193.875
-194.098
-194.333
-194.578
-194.83
-195.086
-195.347
-195.613
-195.886
-196.169
-196.466
-196.783
-197.127
-197.507
-197.935
-198.426
-198.987
-199.658
-200.429
-201.345
-202.462
-203.595
-88.278
0.0199786
0.0123279
0.0130295
0.00983754
0.00861045
0.00702866
0.00532905
0.00428736
0.00267229
0.00181538
0.000314254
20.2775
20.0535
19.606
18.9222
17.9946
16.8077
15.3466
13.5871
11.502
9.06266
6.2367
2.98763
-0.725673
-4.94486
-9.71224
-15.0718
-21.0654
-27.7317
-35.1034
-43.2044
-52.0477
-61.6349
-71.9602
-83.0341
-94.8884
-107.468
-120.647
-134.241
-148.038
-161.75
-175.208
-188.5
-201.478
-213.822
-225.14
-235.041
-243.213
-249.462
-253.729
-256.091
-256.745
-255.974
-254.059
-251.328
-248.069
-244.499
-240.734
-236.836
-232.861
-228.875
-224.949
-221.158
-217.568
-214.228
-211.177
-208.432
-205.991
-203.83
-201.936
-200.287
-198.862
-197.648
-196.624
-195.77
-195.077
-194.524
-194.093
-193.767
-193.537
-193.394
-193.327
-193.325
-193.378
-193.477
-193.614
-193.781
-193.971
-194.179
-194.4
-194.631
-194.869
-195.112
-195.36
-195.614
-195.875
-196.147
-196.434
-196.74
-197.075
-197.445
-197.86
-198.336
-198.872
-199.508
-200.218
-201.039
-202.021
-202.963
-89.3642
0.0165488
0.0123127
0.0122838
0.00992164
0.00864154
0.0072095
0.00552307
0.00440067
0.00285376
0.00180159
0.000366195
24.1839
23.9549
23.5267
22.8793
21.994
20.8515
19.4386
17.7298