/*--------------------------------*- C++ -*----------------------------------*\
| =========                 |                                                 |
| \\      /  F ield         | OpenFOAM: The Open Source CFD Toolbox           |
|  \\    /   O peration     | Version:  v2106                                 |
|   \\  /    A nd           | Website:  www.openfoam.com                      |
|    \\/     M anipulation  |                                                 |
\*---------------------------------------------------------------------------*/
FoamFile
{
    version     2.0;
    format      ascii;
    arch        "LSB;label=32;scalar=64";
    class       surfaceScalarField;
    location    "2";
    object      phi;
}
// * * * * * * * * * * * * * * * * * * * * * * * * * * * * * * * * * * * * * //

dimensions      [0 3 -1 0 0 0 0];

oriented        oriented;

internalField   nonuniform List<scalar> 
59425
(
9.1947e-08
-9.24095e-06
1.85352e-07
-9.39808e-06
2.78619e-07
-9.30464e-06
3.72549e-07
-9.13215e-06
4.74443e-07
-8.88781e-06
5.92934e-07
-8.55863e-06
7.38598e-07
-8.13855e-06
9.34719e-07
-7.61796e-06
1.22868e-06
-6.98262e-06
1.70459e-06
-6.2029e-06
2.50273e-06
-5.21713e-06
3.87274e-06
-3.91553e-06
6.3128e-06
-2.08845e-06
8.59082e-06
-1.45906e-06
9.9608e-06
-2.68711e-06
1.09664e-05
-3.53602e-06
1.17739e-05
-4.17879e-06
1.24708e-05
-4.69107e-06
1.30885e-05
-5.12302e-06
1.36634e-05
-5.47386e-06
1.41847e-05
-5.78006e-06
1.46691e-05
-6.03451e-06
1.51104e-05
-6.25365e-06
1.55287e-05
-6.42249e-06
1.59092e-05
-6.56632e-06
1.62758e-05
-6.66213e-06
1.65979e-05
-6.74659e-06
1.68981e-05
-6.78713e-06
1.71732e-05
-6.79353e-06
1.74356e-05
-6.76164e-06
1.76746e-05
-6.7085e-06
1.78916e-05
-6.63143e-06
1.80889e-05
-6.52867e-06
1.82651e-05
-6.40445e-06
1.84229e-05
-6.25956e-06
1.85611e-05
-6.09823e-06
1.8681e-05
-5.92218e-06
1.87727e-05
-5.7411e-06
1.88299e-05
-5.55706e-06
1.88537e-05
-5.36539e-06
1.88399e-05
-5.16687e-06
1.87844e-05
-4.96367e-06
1.86905e-05
-4.74633e-06
1.85588e-05
-4.50983e-06
1.83841e-05
-4.25374e-06
1.81798e-05
-3.9574e-06
1.79605e-05
-3.61152e-06
1.77343e-05
-3.22062e-06
1.75247e-05
-2.77512e-06
1.74003e-05
-2.26017e-06
1.74689e-05
-1.63009e-06
1.78793e-05
-7.73597e-07
1.87337e-05
1.78334e-07
1.9011e-05
-2.74718e-07
1.90408e-05
-6.57259e-07
1.8939e-05
-9.44377e-07
1.87486e-05
-1.1803e-06
1.84856e-05
-1.39576e-06
1.81484e-05
-1.606e-06
1.77282e-05
-1.81468e-06
1.7218e-05
-2.00996e-06
1.66035e-05
-2.18365e-06
1.58986e-05
-2.28494e-06
1.51365e-05
-2.26525e-06
1.44141e-05
-2.0315e-06
1.40854e-05
-1.34153e-06
1.4229e-05
-4.03093e-07
1.42743e-05
-2.70761e-07
1.41832e-05
-4.11046e-07
1.37786e-05
-7.85134e-07
1.34773e-05
-6.75537e-07
1.34626e-05
-3.40854e-07
1.33189e-05
-4.99225e-07
1.29452e-05
-8.71039e-07
1.24219e-05
-1.15697e-06
1.1871e-05
-1.23789e-06
1.15148e-05
-9.91631e-07
1.16663e-05
-3.23338e-07
1.1653e-05
-5.39413e-07
1.15393e-05
-8.50092e-07
1.1355e-05
-1.15249e-06
1.05667e-05
-2.11078e-06
9.92697e-06
-2.15863e-06
9.51028e-06
-2.00148e-06
9.11138e-06
-2.01752e-06
8.81872e-06
-1.94477e-06
8.52981e-06
-1.85506e-06
8.15145e-06
-1.98335e-06
8.02275e-06
-1.73599e-06
7.8767e-06
-1.7552e-06
7.82609e-06
-1.7465e-06
7.96263e-06
-1.65119e-06
8.16226e-06
-1.80083e-06
8.24387e-06
-2.30401e-06
8.26528e-06
-2.93458e-06
8.88585e-06
-3.07268e-06
1.03228e-05
-3.73064e-06
1.16044e-05
-5.34572e-06
-2.47602e-05
-3.93279e-05
-3.70137e-05
-2.69096e-05
-3.57416e-05
-3.98848e-05
-3.20525e-05
-2.4818e-05
-3.04485e-05
-2.3615e-05
-2.79178e-05
-1.60787e-05
-2.69494e-05
-1.39566e-05
-2.54241e-05
-9.65914e-06
-2.45515e-05
-7.33622e-06
-2.32313e-05
-4.40587e-06
-2.2583e-05
-2.97158e-06
-1.20767e-06
1.44103e-07
-9.38506e-06
2.90242e-07
-9.54422e-06
4.39564e-07
-9.45396e-06
5.984e-07
-9.29099e-06
7.73646e-07
-9.06305e-06
9.74426e-07
-8.75941e-06
1.21019e-06
-8.37431e-06
1.49255e-06
-7.90032e-06
1.83462e-06
-7.32469e-06
2.26239e-06
-6.63067e-06
2.86416e-06
-5.8189e-06
3.88024e-06
-4.93161e-06
5.89285e-06
-4.10104e-06
8.18042e-06
-3.74663e-06
9.64816e-06
-4.15486e-06
1.07334e-05
-4.62127e-06
1.1601e-05
-5.04639e-06
1.23381e-05
-5.42816e-06
1.2984e-05
-5.76896e-06
1.35728e-05
-6.06262e-06
1.41113e-05
-6.3185e-06
1.46115e-05
-6.53479e-06
1.50737e-05
-6.71577e-06
1.551e-05
-6.8588e-06
1.59138e-05
-6.97011e-06
1.6298e-05
-7.04638e-06
1.66466e-05
-7.09517e-06
1.69696e-05
-7.11011e-06
1.72683e-05
-7.09227e-06
1.75494e-05
-7.04278e-06
1.78079e-05
-6.96696e-06
1.80427e-05
-6.86622e-06
1.82552e-05
-6.74121e-06
1.84451e-05
-6.5943e-06
1.86131e-05
-6.42756e-06
1.87587e-05
-6.2438e-06
1.88818e-05
-6.04532e-06
1.89772e-05
-5.8365e-06
1.90403e-05
-5.62012e-06
1.90708e-05
-5.39593e-06
1.90684e-05
-5.1645e-06
1.90303e-05
-4.92558e-06
1.89577e-05
-4.67368e-06
1.88521e-05
-4.40419e-06
1.87115e-05
-4.11314e-06
1.85456e-05
-3.79152e-06
1.83679e-05
-3.43383e-06
1.81861e-05
-3.03889e-06
1.80129e-05
-2.60191e-06
1.7867e-05
-2.11427e-06
1.78004e-05
-1.56351e-06
1.80416e-05
-1.01479e-06
1.88151e-05
-5.95148e-07
1.91147e-05
-5.74259e-07
1.91614e-05
-7.04028e-07
1.90738e-05
-8.567e-07
1.88963e-05
-1.00285e-06
1.86474e-05
-1.14679e-06
1.83289e-05
-1.2875e-06
1.79346e-05
-1.42042e-06
1.74587e-05
-1.53408e-06
1.68871e-05
-1.61199e-06
1.62274e-05
-1.62532e-06
1.55038e-05
-1.54158e-06
1.47974e-05
-1.32512e-06
1.43987e-05
-9.42848e-07
1.44694e-05
-4.73793e-07
1.44973e-05
-2.98709e-07
1.4396e-05
-3.09675e-07
1.39968e-05
-3.85911e-07
1.36719e-05
-3.50728e-07
1.36023e-05
-2.71198e-07
1.34582e-05
-3.55164e-07
1.31031e-05
-5.15911e-07
1.25938e-05
-6.47717e-07
1.20417e-05
-6.85749e-07
1.16524e-05
-6.02325e-07
1.17311e-05
-4.02059e-07
1.17047e-05
-5.12974e-07
1.15885e-05
-7.33909e-07
1.14125e-05
-9.76537e-07
1.0695e-05
-1.39327e-06
1.00737e-05
-1.53726e-06
9.63768e-06
-1.56549e-06
9.20417e-06
-1.584e-06
8.84188e-06
-1.58248e-06
8.53009e-06
-1.54327e-06
8.14239e-06
-1.59565e-06
7.94158e-06
-1.53519e-06
7.74991e-06
-1.56352e-06
7.61385e-06
-1.61045e-06
7.61642e-06
-1.65375e-06
7.65083e-06
-1.83525e-06
7.55035e-06
-2.20353e-06
7.37024e-06
-2.75446e-06
7.58835e-06
-3.29079e-06
8.5109e-06
-4.65319e-06
9.54457e-06
-6.3794e-06
-1.91112e-05
-1.06721e-05
-3.10737e-05
-1.49471e-05
-2.88094e-05
-4.21491e-05
-2.55925e-05
-2.80349e-05
-2.49589e-05
-2.42486e-05
-2.34867e-05
-1.75508e-05
-2.31106e-05
-1.43327e-05
-2.21933e-05
-1.05764e-05
-2.16487e-05
-7.88085e-06
-2.07228e-05
-5.33184e-06
-2.03019e-05
-3.39241e-06
-1.57733e-06
2e-07
-9.58506e-06
4.05016e-07
-9.74924e-06
6.17577e-07
-9.66652e-06
8.44641e-07
-9.51805e-06
1.09228e-06
-9.31069e-06
1.37166e-06
-9.03879e-06
1.69623e-06
-8.69887e-06
2.08522e-06
-8.28932e-06
2.57067e-06
-7.81014e-06
3.20904e-06
-7.26904e-06
4.07608e-06
-6.68593e-06
5.22593e-06
-6.08146e-06
6.64744e-06
-5.52255e-06
8.09095e-06
-5.19015e-06
9.2676e-06
-5.3315e-06
1.02573e-05
-5.61098e-06
1.11221e-05
-5.91119e-06
1.1894e-05
-6.20005e-06
1.25916e-05
-6.4666e-06
1.3232e-05
-6.703e-06
1.3823e-05
-6.90952e-06
1.43724e-05
-7.08413e-06
1.48838e-05
-7.22718e-06
1.53626e-05
-7.33766e-06
1.58097e-05
-7.41714e-06
1.62284e-05
-7.46513e-06
1.66166e-05
-7.48334e-06
1.6977e-05
-7.47053e-06
1.73115e-05
-7.42678e-06
1.76222e-05
-7.35344e-06
1.79082e-05
-7.25295e-06
1.81691e-05
-7.12715e-06
1.84053e-05
-6.97741e-06
1.86166e-05
-6.80564e-06
1.8803e-05
-6.61396e-06
1.89639e-05
-6.4047e-06
1.90987e-05
-6.18014e-06
1.92053e-05
-5.9431e-06
1.92812e-05
-5.69601e-06
1.93252e-05
-5.43988e-06
1.93359e-05
-5.1752e-06
1.93119e-05
-4.90157e-06
1.92544e-05
-4.6162e-06
1.9166e-05
-4.31582e-06
1.90502e-05
-3.99727e-06
1.8915e-05
-3.65638e-06
1.87716e-05
-3.29044e-06
1.86324e-05
-2.89967e-06
1.8516e-05
-2.48545e-06
1.84534e-05
-2.0517e-06
1.85042e-05
-1.61429e-06
1.86795e-05
-1.19012e-06
1.89149e-05
-8.30585e-07
1.90371e-05
-6.96401e-07
1.90307e-05
-6.97632e-07
1.89199e-05
-7.45923e-07
1.87298e-05
-8.12743e-07
1.8472e-05
-8.89008e-07
1.81505e-05
-9.65998e-07
1.77674e-05
-1.03734e-06
1.73267e-05
-1.09336e-06
1.68357e-05
-1.12099e-06
1.63118e-05
-1.1014e-06
1.57845e-05
-1.01429e-06
1.53007e-05
-8.41311e-07
1.49338e-05
-5.75913e-07
1.47307e-05
-2.70734e-07
1.45582e-05
-1.26221e-07
1.4345e-05
-9.64303e-08
1.40646e-05
-1.05539e-07
1.37939e-05
-8.00161e-08
1.35731e-05
-5.03925e-08
1.33198e-05
-1.01873e-07
1.30012e-05
-1.97293e-07
1.26345e-05
-2.81033e-07
1.22656e-05
-3.1684e-07
1.1959e-05
-2.95747e-07
1.17923e-05
-2.35317e-07
1.16043e-05
-3.24982e-07
1.1359e-05
-4.88665e-07
1.10584e-05
-6.75897e-07
1.06051e-05
-9.39941e-07
1.01445e-05
-1.07675e-06
9.71861e-06
-1.13956e-06
9.31558e-06
-1.18097e-06
8.94295e-06
-1.20986e-06
8.61339e-06
-1.21371e-06
8.28253e-06
-1.26478e-06
8.02479e-06
-1.27745e-06
7.79135e-06
-1.33008e-06
7.59152e-06
-1.41061e-06
7.45049e-06
-1.51272e-06
7.30112e-06
-1.68588e-06
7.04976e-06
-1.95217e-06
6.64325e-06
-2.34796e-06
6.1529e-06
-2.80043e-06
5.30761e-06
-3.8079e-06
3.73164e-06
-4.80342e-06
-9.99513e-08
-6.84053e-06
-7.04585e-06
-8.00115e-06
-1.59457e-05
-3.32493e-05
-1.73659e-05
-2.66147e-05
-1.92402e-05
-2.23743e-05
-1.93341e-05
-1.74569e-05
-1.95858e-05
-1.40811e-05
-1.93796e-05
-1.07826e-05
-1.91779e-05
-8.08252e-06
-1.88502e-05
-5.65952e-06
-1.86157e-05
-3.6269e-06
-1.76664e-06
2.52367e-07
-9.83742e-06
5.11411e-07
-1.00083e-05
7.80518e-07
-9.93563e-06
1.06586e-06
-9.80339e-06
1.37475e-06
-9.61958e-06
1.71816e-06
-9.3822e-06
2.10944e-06
-9.09015e-06
2.56527e-06
-8.74515e-06
3.1071e-06
-8.35197e-06
3.75906e-06
-7.921e-06
4.54348e-06
-7.47035e-06
5.48844e-06
-7.02641e-06
6.61777e-06
-6.65187e-06
7.87762e-06
-6.45e-06
9.0188e-06
-6.47268e-06
1.0019e-05
-6.61116e-06
1.09033e-05
-6.79552e-06
1.16967e-05
-6.99339e-06
1.24173e-05
-7.18727e-06
1.30804e-05
-7.36608e-06
1.3695e-05
-7.52412e-06
1.42683e-05
-7.65745e-06
1.4805e-05
-7.76384e-06
1.5309e-05
-7.84166e-06
1.57822e-05
-7.89038e-06
1.62266e-05
-7.90946e-06
1.66422e-05
-7.89895e-06
1.70302e-05
-7.85852e-06
1.73917e-05
-7.78831e-06
1.77275e-05
-7.68927e-06
1.80375e-05
-7.56292e-06
1.83212e-05
-7.41086e-06
1.85785e-05
-7.23466e-06
1.88089e-05
-7.03611e-06
1.90122e-05
-6.81726e-06
1.91878e-05
-6.58026e-06
1.93349e-05
-6.32729e-06
1.94525e-05
-6.06069e-06
1.95391e-05
-5.78261e-06
1.95937e-05
-5.49448e-06
1.96157e-05
-5.19712e-06
1.96047e-05
-4.89062e-06
1.95623e-05
-4.57385e-06
1.94916e-05
-4.24504e-06
1.93968e-05
-3.9025e-06
1.9285e-05
-3.54459e-06
1.91654e-05
-3.17085e-06
1.90487e-05
-2.78301e-06
1.89481e-05
-2.38476e-06
1.88789e-05
-1.98254e-06
1.88532e-05
-1.58857e-06
1.88857e-05
-1.22267e-06
1.89812e-05
-9.26067e-07
1.90315e-05
-7.46658e-07
1.89937e-05
-6.5983e-07
1.88786e-05
-6.30807e-07
1.86941e-05
-6.2827e-07
1.84473e-05
-6.4218e-07
1.81443e-05
-6.63083e-07
1.77872e-05
-6.80166e-07
1.73795e-05
-6.8572e-07
1.69279e-05
-6.69412e-07
1.64463e-05
-6.19787e-07
1.59588e-05
-5.26782e-07
1.55023e-05
-3.84778e-07
1.51277e-05
-2.01281e-07
1.48715e-05
-1.45661e-08
1.46489e-05
9.63708e-08
1.44014e-05
1.51044e-07
1.41155e-05
1.80378e-07
1.38328e-05
2.02662e-07
1.35752e-05
2.07231e-07
1.32954e-05
1.77891e-07
1.29701e-05
1.28074e-07
1.26119e-05
7.71629e-08
1.22548e-05
4.02051e-08
1.19416e-05
1.74691e-08
1.17172e-05
-1.09089e-08
1.14896e-05
-9.73681e-08
1.12226e-05
-2.21635e-07
1.09103e-05
-3.63689e-07
1.04945e-05
-5.24096e-07
1.00643e-05
-6.46524e-07
9.65359e-06
-7.28872e-07
9.26139e-06
-7.88766e-07
8.88908e-06
-8.37554e-07
8.55497e-06
-8.79591e-07
8.22964e-06
-9.3946e-07
7.94589e-06
-9.93698e-07
7.68311e-06
-1.0673e-06
7.43572e-06
-1.16322e-06
7.20551e-06
-1.28251e-06
6.96764e-06
-1.44801e-06
6.68177e-06
-1.66629e-06
6.32683e-06
-1.99301e-06
5.9086e-06
-2.38221e-06
5.28542e-06
-3.18472e-06
4.20495e-06
-3.72295e-06
1.17688e-06
-3.81245e-06
-2.52653e-06
-4.29774e-06
-9.65552e-06
-2.61203e-05
-1.2606e-05
-2.36643e-05
-1.47243e-05
-2.0256e-05
-1.56335e-05
-1.65476e-05
-1.63122e-05
-1.34024e-05
-1.6544e-05
-1.05508e-05
-1.66234e-05
-8.00315e-06
-1.65584e-05
-5.72448e-06
-1.64835e-05
-3.7018e-06
-1.8427e-06
2.99341e-07
-1.01368e-05
6.06127e-07
-1.03151e-05
9.24626e-07
-1.02541e-05
1.26028e-06
-1.0139e-05
1.62052e-06
-9.97983e-06
2.01534e-06
-9.77703e-06
2.45656e-06
-9.53137e-06
2.95776e-06
-9.24634e-06
3.53447e-06
-8.92868e-06
4.20318e-06
-8.58971e-06
4.97979e-06
-8.24697e-06
5.87939e-06
-7.92601e-06
6.89278e-06
-7.66526e-06
7.94971e-06
-7.50693e-06
8.94991e-06
-7.47289e-06
9.87044e-06
-7.5317e-06
1.07172e-05
-7.64223e-06
1.14996e-05
-7.77587e-06
1.22267e-05
-7.91429e-06
1.2906e-05
-8.04538e-06
1.35433e-05
-8.16149e-06
1.41433e-05
-8.2574e-06
1.47091e-05
-8.32964e-06
1.52432e-05
-8.37584e-06
1.57474e-05
-8.3945e-06
1.62225e-05
-8.38461e-06
1.66692e-05
-8.34564e-06
1.7088e-05
-8.27727e-06
1.74792e-05
-8.17959e-06
1.78432e-05
-8.05327e-06
1.81797e-05
-7.89942e-06
1.84883e-05
-7.71943e-06
1.87685e-05
-7.51485e-06
1.90198e-05
-7.28745e-06
1.92418e-05
-7.03919e-06
1.94337e-05
-6.77219e-06
1.9595e-05
-6.48862e-06
1.9725e-05
-6.1907e-06
1.98229e-05
-5.88052e-06
1.98883e-05
-5.55981e-06
1.9921e-05
-5.2298e-06
1.99215e-05
-4.89119e-06
1.98917e-05
-4.54398e-06
1.98343e-05
-4.18772e-06
1.97539e-05
-3.82203e-06
1.96562e-05
-3.44693e-06
1.95488e-05
-3.06343e-06
1.944e-05
-2.67423e-06
1.93391e-05
-2.2839e-06
1.92561e-05
-1.89948e-06
1.91993e-05
-1.53182e-06
1.91729e-05
-1.19627e-06
1.91594e-05
-9.12588e-07
1.91129e-05
-7.00112e-07
1.90143e-05
-5.61292e-07
1.88593e-05
-4.75798e-07
1.865e-05
-4.18952e-07
1.83884e-05
-3.80524e-07
1.80769e-05
-3.51608e-07
1.77229e-05
-3.26173e-07
1.73332e-05
-2.96053e-07
1.69168e-05
-2.52955e-07
1.64863e-05
-1.8932e-07
1.60593e-05
-9.97485e-08
1.56579e-05
1.65563e-08
1.52996e-05
1.57096e-07
1.49931e-05
2.919e-07
1.4702e-05
3.87462e-07
1.44088e-05
4.44277e-07
1.4111e-05
4.78115e-07
1.38154e-05
4.98255e-07
1.3521e-05
5.01706e-07
1.32166e-05
4.82266e-07
1.28989e-05
4.45753e-07
1.2573e-05
4.03096e-07
1.2251e-05
3.62136e-07
1.19464e-05
3.22113e-07
1.16621e-05
2.73346e-07
1.13699e-05
1.94851e-07
1.10581e-05
9.01588e-08
1.07251e-05
-3.06858e-08
1.03567e-05
-1.55655e-07
9.97438e-06
-2.64219e-07
9.59628e-06
-3.50764e-07
9.23035e-06
-4.2284e-07
8.88056e-06
-4.87757e-07
8.5501e-06
-5.49135e-07
8.2294e-06
-6.18759e-07
7.92732e-06
-6.91618e-07
7.6363e-06
-7.76274e-07
7.3498e-06
-8.76721e-07
7.061e-06
-9.93714e-07
6.7508e-06
-1.13781e-06
6.38717e-06
-1.30266e-06
5.94102e-06
-1.54686e-06
5.39189e-06
-1.83307e-06
4.69298e-06
-2.48582e-06
3.80477e-06
-2.83474e-06
2.57359e-06
-2.58128e-06
6.8126e-07
-2.40541e-06
-5.51024e-06
-1.99288e-05
-8.85655e-06
-2.0318e-05
-1.10907e-05
-1.80219e-05
-1.2444e-05
-1.51943e-05
-1.34059e-05
-1.24405e-05
-1.39517e-05
-1.00049e-05
-1.42788e-05
-7.67611e-06
-1.44417e-05
-5.5616e-06
-1.45121e-05
-3.63139e-06
-1.83202e-06
3.40514e-07
-1.04773e-05
6.88668e-07
-1.06632e-05
1.0493e-06
-1.06148e-05
1.42736e-06
-1.05171e-05
1.82977e-06
-1.03822e-05
2.2651e-06
-1.02124e-05
2.74319e-06
-1.00095e-05
3.27455e-06
-9.77771e-06
3.87001e-06
-9.52414e-06
4.53955e-06
-9.25926e-06
5.2903e-06
-8.99772e-06
6.12298e-06
-8.7587e-06
7.0233e-06
-8.56557e-06
7.95653e-06
-8.44016e-06
8.87554e-06
-8.3919e-06
9.75341e-06
-8.40956e-06
1.05827e-05
-8.47157e-06
1.1364e-05
-8.55713e-06
1.21002e-05
-8.65052e-06
1.27954e-05
-8.7405e-06
1.3453e-05
-8.8191e-06
1.40762e-05
-8.88058e-06
1.46673e-05
-8.9208e-06
1.52282e-05
-8.93675e-06
1.576e-05
-8.92631e-06
1.62634e-05
-8.88802e-06
1.67387e-05
-8.82094e-06
1.7186e-05
-8.72456e-06
1.76053e-05
-8.59884e-06
1.79962e-05
-8.44423e-06
1.83584e-05
-8.26161e-06
1.86912e-05
-8.05223e-06
1.8994e-05
-7.81758e-06
1.92659e-05
-7.55942e-06
1.95065e-05
-7.27973e-06
1.97149e-05
-6.98067e-06
1.98908e-05
-6.66446e-06
2.00335e-05
-6.33341e-06
2.01427e-05
-5.98971e-06
2.02182e-05
-5.63538e-06
2.02605e-05
-5.27209e-06
2.02705e-05
-4.90113e-06
2.02499e-05
-4.52338e-06
2.02016e-05
-4.13947e-06
2.01297e-05
-3.75009e-06
2.00391e-05
-3.35635e-06
1.99358e-05
-2.96019e-06
1.98264e-05
-2.56479e-06
1.97173e-05
-2.17478e-06
1.96144e-05
-1.79654e-06
1.95211e-05
-1.43852e-06
1.9436e-05
-1.11125e-06
1.93501e-05
-8.26656e-07
1.92449e-05
-5.94957e-07
1.91028e-05
-4.19173e-07
1.8916e-05
-2.88923e-07
1.86859e-05
-1.88921e-07
1.84148e-05
-1.09418e-07
1.81063e-05
-4.31128e-08
1.77633e-05
1.68299e-08
1.73904e-05
7.68186e-08
1.69947e-05
1.42796e-07
1.65857e-05
2.19671e-07
1.61756e-05
3.10395e-07
1.57783e-05
4.1379e-07
1.54123e-05
5.231e-07
1.50795e-05
6.24749e-07
1.47636e-05
7.03375e-07
1.44504e-05
7.57449e-07
1.41361e-05
7.92446e-07
1.38227e-05
8.11566e-07
1.35102e-05
8.14237e-07
1.31924e-05
8.00027e-07
1.2866e-05
7.72183e-07
1.25339e-05
7.35243e-07
1.22039e-05
6.92133e-07
1.18839e-05
6.42059e-07
1.15764e-05
5.80828e-07
1.12684e-05
5.02886e-07
1.09485e-05
4.10035e-07
1.06093e-05
3.0851e-07
1.02495e-05
2.04144e-07
9.87943e-06
1.05894e-07
9.50985e-06
1.88155e-08
9.14771e-06
-6.07018e-08
8.79707e-06
-1.37117e-07
8.46047e-06
-2.12525e-07
8.13366e-06
-2.91954e-07
7.81741e-06
-3.75367e-07
7.50684e-06
-4.65702e-07
7.19535e-06
-5.65226e-07
6.87661e-06
-6.74981e-07
6.54053e-06
-8.01729e-07
6.17315e-06
-9.35278e-07
5.75466e-06
-1.12837e-06
5.26993e-06
-1.34835e-06
4.62635e-06
-1.84223e-06
3.80532e-06
-2.0137e-06
2.77428e-06
-1.55023e-06
1.73337e-06
-1.36451e-06
-3.24587e-06
-1.49495e-05
-6.2615e-06
-1.73023e-05
-8.28406e-06
-1.59993e-05
-9.78194e-06
-1.36964e-05
-1.08714e-05
-1.13511e-05
-1.1596e-05
-9.28024e-06
-1.20838e-05
-7.18833e-06
-1.23816e-05
-5.26385e-06
-1.25487e-05
-3.46422e-06
-1.75873e-06
3.7583e-07
-1.08531e-05
7.59163e-07
-1.10466e-05
1.15506e-06
-1.10107e-05
1.56802e-06
-1.09301e-05
2.00426e-06
-1.08185e-05
2.47092e-06
-1.0679e-05
2.97584e-06
-1.05144e-05
3.52698e-06
-1.03288e-05
4.13175e-06
-1.01289e-05
4.79603e-06
-9.92353e-06
5.52248e-06
-9.72417e-06
6.30821e-06
-9.54443e-06
7.14145e-06
-9.39882e-06
8.00062e-06
-9.29933e-06
8.85953e-06
-9.25082e-06
9.69801e-06
-9.24805e-06
1.05054e-05
-9.27896e-06
1.12782e-05
-9.32988e-06
1.20162e-05
-9.38857e-06
1.27209e-05
-9.44521e-06
1.3394e-05
-9.49217e-06
1.4037e-05
-9.5236e-06
1.46512e-05
-9.53503e-06
1.52376e-05
-9.52307e-06
1.57964e-05
-9.4852e-06
1.6328e-05
-9.41958e-06
1.68321e-05
-9.325e-06
1.73083e-05
-9.20076e-06
1.77561e-05
-9.04664e-06
1.81748e-05
-8.86294e-06
1.85636e-05
-8.6504e-06
1.89215e-05
-8.41018e-06
1.92477e-05
-8.14376e-06
1.95412e-05
-7.85293e-06
1.98012e-05
-7.53975e-06
2.0027e-05
-7.20647e-06
2.02181e-05
-6.85549e-06
2.03739e-05
-6.48926e-06
2.04944e-05
-6.11024e-06
2.05798e-05
-5.72075e-06
2.06306e-05
-5.3229e-06
2.0648e-05
-4.91854e-06
2.06339e-05
-4.5093e-06
2.05911e-05
-4.09661e-06
2.0523e-05
-3.68202e-06
2.0434e-05
-3.26737e-06
2.0329e-05
-2.85513e-06
2.02128e-05
-2.44864e-06
2.00903e-05
-2.05223e-06
1.9965e-05
-1.67133e-06
1.9839e-05
-1.31247e-06
1.97108e-05
-9.83078e-07
1.95749e-05
-6.90739e-07
1.94214e-05
-4.41439e-07
1.92389e-05
-2.36648e-07
1.90208e-05
-7.08879e-08
1.8767e-05
6.48981e-08
1.84791e-05
1.78506e-07
1.81594e-05
2.76531e-07
1.78115e-05
3.64744e-07
1.74404e-05
4.47958e-07
1.70528e-05
5.30382e-07
1.66569e-05
6.15519e-07
1.6262e-05
7.05285e-07
1.58769e-05
7.98894e-07
1.55081e-05
8.91973e-07
1.51564e-05
9.76382e-07
1.48156e-05
1.04421e-06
1.44797e-05
1.09334e-06
1.41466e-05
1.12554e-06
1.38158e-05
1.14236e-06
1.34859e-05
1.14412e-06
1.31548e-05
1.1312e-06
1.28215e-05
1.1054e-06
1.24876e-05
1.06921e-06
1.21553e-05
1.02441e-06
1.18264e-05
9.70987e-07
1.14997e-05
9.07486e-07
1.11705e-05
8.3215e-07
1.08345e-05
7.46022e-07
1.04903e-05
6.52673e-07
1.0138e-05
5.5644e-07
9.78131e-06
4.62596e-07
9.42627e-06
3.73847e-07
9.0765e-06
2.89072e-07
8.73321e-06
2.06177e-07
8.39748e-06
1.23206e-07
8.06768e-06
3.78413e-08
7.74306e-06
-5.07458e-08
7.41952e-06
-1.42154e-07
7.09286e-06
-2.38568e-07
6.75612e-06
-3.38241e-07
6.39932e-06
-4.44924e-07
6.01101e-06
-5.46971e-07
5.56923e-06
-6.86593e-07
5.07061e-06
-8.49729e-07
4.44801e-06
-1.21962e-06
3.70767e-06
-1.27337e-06
2.85806e-06
-7.00622e-07
2.14026e-06
-6.46706e-07
-1.60329e-06
-1.1206e-05
-4.16591e-06
-1.47397e-05
-6.02647e-06
-1.41388e-05
-7.53272e-06
-1.21901e-05
-8.67076e-06
-1.02131e-05
-9.4999e-06
-8.4511e-06
-1.00915e-05
-6.5967e-06
-1.04798e-05
-4.87564e-06
-1.07149e-05
-3.22912e-06
-1.64915e-06
4.05444e-07
-1.12586e-05
8.18069e-07
-1.14592e-05
1.24287e-06
-1.14355e-05
1.68395e-06
-1.13711e-05
2.14675e-06
-1.12813e-05
2.63716e-06
-1.11694e-05
3.16133e-06
-1.10386e-05
3.72523e-06
-1.08927e-05
4.33399e-06
-1.07377e-05
4.99107e-06
-1.05806e-05
5.69705e-06
-1.04301e-05
6.44832e-06
-1.02957e-05
7.23586e-06
-1.01864e-05
8.04556e-06
-1.0109e-05
8.86095e-06
-1.00662e-05
9.6678e-06
-1.00549e-05
1.04566e-05
-1.00677e-05
1.12221e-05
-1.00954e-05
1.19622e-05
-1.01287e-05
1.26763e-05
-1.01593e-05
1.33644e-05
-1.01803e-05
1.40268e-05
-1.01861e-05
1.46639e-05
-1.01721e-05
1.52755e-05
-1.01347e-05
1.58616e-05
-1.00713e-05
1.64216e-05
-9.97959e-06
1.69549e-05
-9.85827e-06
1.74605e-05
-9.7064e-06
1.79375e-05
-9.52365e-06
1.83847e-05
-9.31017e-06
1.8801e-05
-9.06664e-06
1.91849e-05
-8.79415e-06
1.95354e-05
-8.49424e-06
1.98512e-05
-8.16876e-06
2.01314e-05
-7.81991e-06
2.03751e-05
-7.45013e-06
2.05816e-05
-7.06201e-06
2.07506e-05
-6.65831e-06
2.08822e-05
-6.24176e-06
2.09765e-05
-5.81507e-06
2.10344e-05
-5.3808e-06
2.10572e-05
-4.94134e-06
2.10468e-05
-4.49892e-06
2.10058e-05
-4.05564e-06
2.09375e-05
-3.61367e-06
2.08455e-05
-3.17537e-06
2.07339e-05
-2.74352e-06
2.06067e-05
-2.32144e-06
2.04675e-05
-1.91306e-06
2.03191e-05
-1.52294e-06
2.01628e-05
-1.15618e-06
1.99978e-05
-8.18091e-07
1.98208e-05
-5.13686e-07
1.96259e-05
-2.46571e-07
1.94067e-05
-1.74767e-08
1.91592e-05
1.76632e-07
1.88824e-05
3.41745e-07
1.85773e-05
4.83538e-07
1.82465e-05
6.07353e-07
1.78933e-05
7.17917e-07
1.7522e-05
8.19334e-07
1.71373e-05
9.15037e-07
1.67452e-05
1.0076e-06
1.63522e-05
1.09826e-06
1.59647e-05
1.18643e-06
1.55873e-05
1.26933e-06
1.52212e-05
1.34248e-06
1.48637e-05
1.40176e-06
1.45116e-05
1.44548e-06
1.41631e-05
1.47401e-06
1.38174e-05
1.48805e-06
1.34735e-05
1.48804e-06
1.31301e-05
1.4746e-06
1.27865e-05
1.44893e-06
1.24433e-05
1.41249e-06
1.21013e-05
1.36633e-06
1.17615e-05
1.3108e-06
1.14233e-05
1.24573e-06
1.10843e-05
1.17111e-06
1.07422e-05
1.08817e-06
1.03954e-05
9.99449e-07
1.00439e-05
9.07926e-07
9.69003e-06
8.16475e-07
9.33726e-06
7.26626e-07
8.98814e-06
6.38187e-07
8.64421e-06
5.50108e-07
8.30603e-06
4.61386e-07
7.97257e-06
3.71301e-07
7.64194e-06
2.79888e-07
7.31255e-06
1.87241e-07
6.97986e-06
9.41168e-08
6.63912e-06
2.50319e-09
6.28296e-06
-8.87647e-08
5.90502e-06
-1.69027e-07
5.48503e-06
-2.666e-07
5.02073e-06
-3.85437e-07
4.43255e-06
-6.3144e-07
3.77425e-06
-6.15071e-07
3.11275e-06
-3.91218e-08
2.62232e-06
-1.56283e-07
-1.2636e-07
-8.45732e-06
-2.39541e-06
-1.24707e-05
-4.14872e-06
-1.23854e-05
-5.62259e-06
-1.07163e-05
-6.76499e-06
-9.07067e-06
-7.65011e-06
-7.56598e-06
-8.29713e-06
-5.94968e-06
-8.7376e-06
-4.43517e-06
-9.01238e-06
-2.95434e-06
-1.51839e-06
4.29632e-07
-1.16882e-05
8.66036e-07
-1.18956e-05
1.31397e-06
-1.18834e-05
1.77716e-06
-1.18343e-05
2.26032e-06
-1.17644e-05
2.76828e-06
-1.16774e-05
3.30592e-06
-1.15762e-05
3.87782e-06
-1.14646e-05
4.48765e-06
-1.13475e-05
5.13757e-06
-1.12305e-05
5.82734e-06
-1.11199e-05
6.55365e-06
-1.1022e-05
7.30978e-06
-1.09425e-05
8.08605e-06
-1.08853e-05
8.87137e-06
-1.08515e-05
9.65551e-06
-1.0839e-05
1.04305e-05
-1.08428e-05
1.11912e-05
-1.0856e-05
1.19341e-05
-1.08717e-05
1.26577e-05
-1.08828e-05
1.33607e-05
-1.08833e-05
1.40424e-05
-1.08678e-05
1.47023e-05
-1.08319e-05
1.53395e-05
-1.0772e-05
1.59532e-05
-1.0685e-05
1.65424e-05
-1.05688e-05
1.71058e-05
-1.04216e-05
1.76419e-05
-1.02425e-05
1.81493e-05
-1.0031e-05
1.86262e-05
-9.78716e-06
1.90712e-05
-9.51157e-06
1.94824e-05
-9.20537e-06
1.98583e-05
-8.87015e-06
2.01975e-05
-8.50792e-06
2.04986e-05
-8.12105e-06
2.07607e-05
-7.71222e-06
2.0983e-05
-7.28435e-06
2.11652e-05
-6.84051e-06
2.13073e-05
-6.38383e-06
2.14097e-05
-5.91744e-06
2.14732e-05
-5.44436e-06
2.14994e-05
-4.9675e-06
2.14901e-05
-4.48963e-06
2.14478e-05
-4.0134e-06
2.13756e-05
-3.54147e-06
2.12768e-05
-3.07657e-06
2.11549e-05
-2.62164e-06
2.10134e-05
-2.17993e-06
2.08554e-05
-1.75499e-06
2.06831e-05
-1.35068e-06
2.04979e-05
-9.70982e-07
2.02996e-05
-6.19825e-07
2.00866e-05
-3.00615e-07
1.98556e-05
-1.55724e-08
1.96032e-05
2.34852e-07
1.93271e-05
4.52773e-07
1.90266e-05
6.4218e-07
1.87029e-05
8.07281e-07
1.83579e-05
9.52341e-07
1.79946e-05
1.08127e-06
1.76164e-05
1.19749e-06
1.72276e-05
1.3038e-06
1.68329e-05
1.40232e-06
1.6437e-05
1.49415e-06
1.60444e-05
1.57907e-06
1.56582e-05
1.65556e-06
1.52794e-05
1.72127e-06
1.49071e-05
1.774e-06
1.454e-05
1.81265e-06
1.41768e-05
1.83718e-06
1.38169e-05
1.84795e-06
1.34595e-05
1.84539e-06
1.3104e-05
1.83012e-06
1.27499e-05
1.80304e-06
1.23972e-05
1.76515e-06
1.20463e-05
1.7173e-06
1.1697e-05
1.66005e-06
1.13489e-05
1.59382e-06
1.10008e-05
1.51922e-06
1.06515e-05
1.43752e-06
1.03003e-05
1.35059e-06
9.94775e-06
1.26052e-06
9.59512e-06
1.1691e-06
9.24436e-06
1.07739e-06
8.89701e-06
9.85536e-07
8.55391e-06
8.93212e-07
8.21518e-06
8.00116e-07
7.88019e-06
7.06296e-07
7.54773e-06
6.12347e-07
7.2161e-06
5.18864e-07
6.88256e-06
4.27663e-07
6.54349e-06
3.41575e-07
6.19315e-06
2.61577e-07
5.82811e-06
1.96009e-07
5.43644e-06
1.25071e-07
5.01588e-06
3.51218e-08
4.49726e-06
-1.12816e-07
3.96386e-06
-8.16729e-08
3.55697e-06
3.67769e-07
3.2912e-06
1.09487e-07
1.2992e-06
-6.46533e-06
-7.99269e-07
-1.03722e-05
-2.54927e-06
-1.06354e-05
-4.00368e-06
-9.26186e-06
-5.1256e-06
-7.94875e-06
-6.03551e-06
-6.65606e-06
-6.70421e-06
-5.28099e-06
-7.17159e-06
-3.96778e-06
-7.46584e-06
-2.66009e-06
-1.37809e-06
4.48734e-07
-1.21369e-05
9.03801e-07
-1.23507e-05
1.36964e-06
-1.23492e-05
1.84965e-06
-1.23144e-05
2.34787e-06
-1.22626e-05
2.86832e-06
-1.21978e-05
3.41499e-06
-1.21229e-05
3.99155e-06
-1.20412e-05
4.60087e-06
-1.19568e-05
5.24442e-06
-1.18741e-05
5.92177e-06
-1.17973e-05
6.63019e-06
-1.17304e-05
7.36469e-06
-1.1677e-05
8.11839e-06
-1.1639e-05
8.88347e-06
-1.16166e-05
9.65237e-06
-1.16079e-05
1.04187e-05
-1.16091e-05
1.11774e-05
-1.16148e-05
1.19252e-05
-1.16194e-05
1.26593e-05
-1.1617e-05
1.3378e-05
-1.1602e-05
1.40798e-05
-1.15696e-05
1.47633e-05
-1.15154e-05
1.54271e-05
-1.14357e-05
1.60697e-05
-1.13275e-05
1.66893e-05
-1.11884e-05
1.72842e-05
-1.10165e-05
1.78523e-05
-1.08107e-05
1.83917e-05
-1.05704e-05
1.89001e-05
-1.02956e-05
1.93754e-05
-9.98684e-06
1.98154e-05
-9.64539e-06
2.02182e-05
-9.27293e-06
2.05819e-05
-8.87163e-06
2.0905e-05
-8.44413e-06
2.11862e-05
-7.99344e-06
2.14247e-05
-7.52284e-06
2.162e-05
-7.03581e-06
2.17721e-05
-6.53595e-06
2.18815e-05
-6.02685e-06
2.19492e-05
-5.51206e-06
2.19767e-05
-4.99499e-06
2.1966e-05
-4.47891e-06
2.19195e-05
-3.96696e-06
2.18403e-05
-3.46218e-06
2.17313e-05
-2.96759e-06
2.15959e-05
-2.48625e-06
2.14373e-05
-2.02129e-06
2.12582e-05
-1.57597e-06
2.10611e-05
-1.15356e-06
2.08474e-05
-7.57247e-07
2.06175e-05
-3.89984e-07
2.03711e-05
-5.41532e-08
2.01067e-05
2.48755e-07
1.9823e-05
5.18546e-07
1.95187e-05
7.57071e-07
1.91939e-05
9.66981e-07
1.88497e-05
1.15152e-06
1.84879e-05
1.31413e-06
1.81111e-05
1.45806e-06
1.77224e-05
1.58618e-06
1.73253e-05
1.70093e-06
1.69234e-05
1.80426e-06
1.65203e-05
1.89723e-06
1.61193e-05
1.98008e-06
1.57227e-05
2.05218e-06
1.53315e-05
2.11243e-06
1.49457e-05
2.15978e-06
1.45647e-05
2.19364e-06
1.41879e-05
2.21398e-06
1.38148e-05
2.22107e-06
1.34449e-05
2.21533e-06
1.30776e-05
2.19735e-06
1.27128e-05
2.16786e-06
1.23503e-05
2.1277e-06
1.19899e-05
2.07764e-06
1.16316e-05
2.01837e-06
1.12749e-05
1.95054e-06
1.09191e-05
1.875e-06
1.05637e-05
1.79294e-06
1.02084e-05
1.70586e-06
9.85365e-06
1.61528e-06
9.50026e-06
1.52248e-06
9.14939e-06
1.42826e-06
8.80199e-06
1.33294e-06
8.45861e-06
1.23659e-06
8.11935e-06
1.13938e-06
7.78386e-06
1.04178e-06
7.45136e-06
9.44846e-07
7.12068e-06
8.4955e-07
6.79025e-06
7.58089e-07
6.45806e-06
6.73772e-07
6.12122e-06
5.98412e-07
5.77978e-06
5.37456e-07
5.42758e-06
4.77265e-07
5.05974e-06
4.0296e-07
4.63697e-06
3.09955e-07
4.24433e-06
3.10967e-07
4.04317e-06
5.68936e-07
3.89793e-06
2.54723e-07
2.40915e-06
-4.97655e-06
4.29434e-07
-8.39249e-06
-1.2577e-06
-8.94831e-06
-2.66778e-06
-7.85178e-06
-3.74056e-06
-6.87597e-06
-4.64585e-06
-5.75078e-06
-5.31035e-06
-4.61649e-06
-5.78538e-06
-3.49275e-06
-6.08411e-06
-2.36136e-06
-1.23709e-06
4.63099e-07
-1.26e-05
9.32099e-07
-1.28197e-05
1.41111e-06
-1.28282e-05
1.90325e-06
-1.28065e-05
2.41197e-06
-1.27714e-05
2.9407e-06
-1.27266e-05
3.49287e-06
-1.2675e-05
4.07167e-06
-1.262e-05
4.67956e-06
-1.25647e-05
5.3177e-06
-1.25122e-05
5.98568e-06
-1.24652e-05
6.68141e-06
-1.24262e-05
7.40115e-06
-1.23967e-05
8.13994e-06
-1.23778e-05
8.89209e-06
-1.23688e-05
9.65189e-06
-1.23677e-05
1.04142e-05
-1.23713e-05
1.11745e-05
-1.23752e-05
1.19294e-05
-1.23743e-05
1.26761e-05
-1.23636e-05
1.34122e-05
-1.23381e-05
1.41356e-05
-1.2293e-05
1.48442e-05
-1.22241e-05
1.55362e-05
-1.21277e-05
1.62093e-05
-1.20006e-05
1.68612e-05
-1.18404e-05
1.74896e-05
-1.16449e-05
1.80919e-05
-1.1413e-05
1.86654e-05
-1.11439e-05
1.92074e-05
-1.08375e-05
1.97151e-05
-1.04946e-05
2.0186e-05
-1.01162e-05
2.06174e-05
-9.70437e-06
2.10072e-05
-9.26144e-06
2.13535e-05
-8.79039e-06
2.16546e-05
-8.29462e-06
2.19097e-05
-7.77788e-06
2.2118e-05
-7.24415e-06
2.22796e-05
-6.69756e-06
2.2395e-05
-6.14226e-06
2.24653e-05
-5.58235e-06
2.24921e-05
-5.02177e-06
2.24775e-05
-4.46428e-06
2.2424e-05
-3.91347e-06
2.23345e-05
-3.37273e-06
2.22122e-05
-2.8453e-06
2.20603e-05
-2.33433e-06
2.18819e-05
-1.84287e-06
2.16798e-05
-1.37391e-06
2.14565e-05
-9.30278e-07
2.12139e-05
-5.14564e-07
2.09529e-05
-1.29057e-07
2.06741e-05
2.24631e-07
2.03778e-05
5.45051e-07
2.00634e-05
8.33042e-07
1.97307e-05
1.08972e-06
1.93805e-05
1.31717e-06
1.9014e-05
1.51801e-06
1.86331e-05
1.69507e-06
1.824e-05
1.85113e-06
1.78375e-05
1.98868e-06
1.74284e-05
2.11001e-06
1.70157e-05
2.21697e-06
1.66022e-05
2.31074e-06
1.61904e-05
2.3919e-06
1.57821e-05
2.46049e-06
1.53783e-05
2.51619e-06
1.49794e-05
2.55869e-06
1.45852e-05
2.58784e-06
1.41954e-05
2.60377e-06
1.38097e-05
2.60678e-06
1.34277e-05
2.59732e-06
1.30491e-05
2.57593e-06
1.26737e-05
2.5433e-06
1.23012e-05
2.50016e-06
1.19316e-05
2.44727e-06
1.15646e-05
2.38538e-06
1.11999e-05
2.31525e-06
1.08371e-05
2.2378e-06
1.04759e-05
2.15412e-06
1.01163e-05
2.06546e-06
9.7586e-06
1.97301e-06
9.40334e-06
1.87774e-06
9.05127e-06
1.78034e-06
8.70302e-06