/*--------------------------------*- C++ -*----------------------------------*\
| =========                 |                                                 |
| \\      /  F ield         | OpenFOAM: The Open Source CFD Toolbox           |
|  \\    /   O peration     | Version:  v2106                                 |
|   \\  /    A nd           | Website:  www.openfoam.com                      |
|    \\/     M anipulation  |                                                 |
\*---------------------------------------------------------------------------*/
FoamFile
{
    version     2.0;
    format      ascii;
    arch        "LSB;label=32;scalar=64";
    class       volVectorField;
    location    "2";
    object      U;
}
// * * * * * * * * * * * * * * * * * * * * * * * * * * * * * * * * * * * * * //

dimensions      [0 1 -1 0 0 0 0];

internalField   nonuniform List<vector> 
29678
(
(-0.0762431 1.85625e-23 0.000379993)
(-0.0775405 1.73103e-21 0.00114571)
(-0.0767631 2.81665e-20 0.00195279)
(-0.0753202 1.9254e-19 0.002704)
(-0.0732179 2.47456e-19 0.00350571)
(-0.070337 2.55988e-19 0.00442261)
(-0.0666112 2.65375e-19 0.00550376)
(-0.0618558 3.48307e-19 0.00688774)
(-0.0557543 -5.17905e-19 0.00884023)
(-0.0477603 1.23987e-19 0.0118831)
(-0.0369033 -3.82077e-19 0.0168928)
(-0.0213724 1.77363e-19 0.0253834)
(0.00263933 -3.77153e-19 0.0406219)
(0.00693 2.35092e-20 0.0620501)
(-0.0109293 -1.4441e-19 0.079561)
(-0.0210633 -5.73952e-20 0.0885199)
(-0.0280853 -4.54135e-19 0.0954263)
(-0.0332829 -2.41358e-20 0.101467)
(-0.0375462 -2.72297e-20 0.106811)
(-0.0408288 -6.78811e-19 0.111694)
(-0.0438272 -5.13605e-19 0.116215)
(-0.0462567 -2.09447e-19 0.120369)
(-0.048442 -2.61896e-19 0.124193)
(-0.0500404 -9.83678e-20 0.127753)
(-0.051554 -2.41269e-19 0.131065)
(-0.0524689 4.27043e-19 0.13417)
(-0.0535423 9.21439e-19 0.137045)
(-0.0540626 -5.01631e-19 0.13963)
(-0.0543249 -1.39126e-18 0.142008)
(-0.0541643 -8.03185e-19 0.14424)
(-0.0539162 -1.77471e-19 0.146336)
(-0.0534573 -2.42304e-19 0.14824)
(-0.0527651 -1.81665e-19 0.149962)
(-0.051904 1.22146e-18 0.151516)
(-0.0508506 5.23299e-19 0.152907)
(-0.0496693 3.53801e-19 0.154139)
(-0.0483539 2.50278e-19 0.15522)
(-0.0470794 -3.53955e-19 0.156116)
(-0.0458318 7.57384e-19 0.156747)
(-0.0445129 3.79745e-19 0.157087)
(-0.0431709 8.80865e-20 0.157132)
(-0.0418237 2.15754e-19 0.156849)
(-0.0403313 -2.68185e-20 0.156227)
(-0.0386748 1.49205e-19 0.155287)
(-0.0368981 -8.78427e-19 0.154012)
(-0.034675 9.04075e-20 0.15242)
(-0.0319188 6.45845e-19 0.150631)
(-0.0287189 1.54834e-19 0.148764)
(-0.0248731 1.70545e-19 0.146931)
(-0.0198824 3.69707e-20 0.145472)
(-0.01305 4.40442e-19 0.145098)
(-0.00311685 6.27813e-20 0.147059)
(0.00857348 -3.38492e-19 0.151999)
(8.79186e-05 -4.73964e-19 0.157166)
(-0.00519762 5.5563e-19 0.159255)
(-0.00869826 1.02287e-19 0.158843)
(-0.0114052 -8.66029e-21 0.157428)
(-0.0138075 1.19466e-19 0.155427)
(-0.0161771 -1.61345e-19 0.152882)
(-0.0186073 5.96938e-20 0.149715)
(-0.0209815 -1.17597e-19 0.145844)
(-0.023297 1.92059e-20 0.141165)
(-0.0248939 -4.04832e-19 0.135645)
(-0.0252078 1.89633e-19 0.129459)
(-0.0229354 4.70355e-19 0.123017)
(-0.0139237 -8.80473e-20 0.117873)
(-0.00217626 -3.03024e-19 0.1173)
(-0.0018777 -3.43197e-19 0.119043)
(-0.0041786 -6.45142e-20 0.119095)
(-0.00989801 6.94954e-19 0.116939)
(-0.00813792 1.39651e-19 0.113202)
(-0.00297113 -2.98353e-19 0.111916)
(-0.00535146 -5.50299e-20 0.111864)
(-0.0103598 6.82768e-19 0.109934)
(-0.0139905 -6.49448e-20 0.105993)
(-0.0148988 -7.30098e-20 0.101248)
(-0.0112326 3.47884e-19 0.096706)
(-0.00145029 4.78499e-21 0.0960497)
(-0.00460249 -3.80522e-19 0.0974347)
(-0.00802527 -6.32638e-20 0.0968228)
(-0.0111336 9.33387e-19 0.0960503)
(-0.0241273 2.73523e-19 0.0921064)
(-0.0233072 -2.73714e-19 0.0849645)
(-0.0201467 -1.07352e-19 0.0807064)
(-0.0201334 2.33006e-19 0.0777593)
(-0.0186469 -2.951e-19 0.0744106)
(-0.0178611 -1.18772e-19 0.07217)
(-0.0196703 3.53129e-19 0.0695308)
(-0.0155409 -7.87315e-21 0.0670377)
(-0.0158406 -3.8171e-19 0.0661921)
(-0.0149768 -1.193e-19 0.065258)
(-0.0126341 3.14053e-19 0.0654589)
(-0.0133535 -1.6314e-19 0.0670476)
(-0.0185202 -1.0693e-19 0.0687438)
(-0.0242687 -2.14297e-20 0.0679777)
(-0.0204503 -7.43175e-20 0.0707938)
(-0.019143 3.89268e-19 0.0768305)
(-0.033865 7.35119e-20 0.0961878)
(-0.624987 2.2746e-19 0.0924453)
(-0.32559 1.39218e-18 -0.452235)
(-0.321564 -2.51692e-19 -0.236033)
(-0.176284 -2.81492e-19 -0.321487)
(-0.18344 -2.36392e-19 -0.237539)
(-0.113067 7.89969e-20 -0.253718)
(-0.108239 -3.81338e-19 -0.222153)
(-0.067852 -2.86711e-19 -0.220707)
(-0.0538647 -6.01585e-20 -0.207125)
(-0.0257715 3.57305e-19 -0.199338)
(-0.0193779 -2.74933e-20 -0.189918)
(-0.00571922 -3.29027e-19 -0.18384)
(-0.0775512 -1.79348e-25 0.000601021)
(-0.0788587 1.73297e-21 0.0018142)
(-0.0780907 3.7974e-20 0.00304952)
(-0.076679 4.54685e-19 0.00428031)
(-0.0747012 -7.10736e-20 0.00568561)
(-0.0720604 -6.47466e-20 0.00724409)
(-0.0687035 -2.01665e-20 0.00904554)
(-0.0645716 3.15369e-19 0.0111859)
(-0.0596072 -1.93468e-19 0.0137627)
(-0.0538007 -6.11098e-20 0.016922)
(-0.0472498 -5.45958e-20 0.02104)
(-0.0402559 1.1335e-19 0.0272973)
(-0.03383 -8.205e-20 0.0388112)
(-0.0313555 -3.51468e-20 0.0582404)
(-0.0349543 4.60087e-20 0.0759645)
(-0.0387603 1.07276e-19 0.0861919)
(-0.042111 1.70566e-19 0.0938107)
(-0.0450669 -1.04974e-19 0.100236)
(-0.0476863 2.26286e-19 0.105851)
(-0.0499403 2.84203e-19 0.110901)
(-0.0519424 7.90899e-20 0.115541)
(-0.0536554 -2.8899e-19 0.119827)
(-0.0551118 -6.71063e-19 0.123804)
(-0.0562743 5.23706e-21 0.127525)
(-0.0571963 2.17434e-20 0.131009)
(-0.0578368 2.12862e-19 0.134284)
(-0.0582666 5.53587e-19 0.137338)
(-0.0584153 1.95322e-19 0.14013)
(-0.0583006 3.19493e-19 0.142707)
(-0.0579265 -2.33975e-20 0.145117)
(-0.0573426 -5.728e-19 0.147369)
(-0.0565547 -1.05617e-18 0.149427)
(-0.0555672 -1.17622e-18 0.151289)
(-0.0544021 1.34998e-19 0.152964)
(-0.0530752 2.77899e-19 0.154455)
(-0.0516117 1.12292e-19 0.155762)
(-0.0500281 -9.34711e-22 0.156886)
(-0.0483664 -6.02811e-19 0.157805)
(-0.0466508 3.85368e-19 0.158471)
(-0.044875 2.55759e-19 0.158863)
(-0.043046 9.45879e-21 0.158981)
(-0.0411502 3.27964e-19 0.158816)
(-0.0391258 1.30949e-19 0.158357)
(-0.0369336 2.22409e-19 0.157613)
(-0.0345394 4.28984e-20 0.156586)
(-0.0318579 3.14489e-19 0.155299)
(-0.0288443 -2.65665e-19 0.153849)
(-0.0254913 -1.55333e-19 0.152337)
(-0.0217608 9.19488e-20 0.150846)
(-0.0176063 8.22385e-20 0.149488)
(-0.013124 4.50733e-19 0.148529)
(-0.00861897 2.11811e-19 0.148963)
(-0.00520054 -2.68206e-19 0.153086)
(-0.00517114 -1.32225e-19 0.158075)
(-0.00630397 1.75025e-19 0.159935)
(-0.0075923 -3.36011e-19 0.159748)
(-0.00886209 -1.07607e-19 0.158559)
(-0.0101065 2.84364e-19 0.156703)
(-0.0113134 3.29682e-20 0.154299)
(-0.0124493 2.0403e-19 0.151314)
(-0.013418 1.01908e-19 0.147689)
(-0.0140858 2.48505e-19 0.143329)
(-0.0142116 -2.11973e-19 0.138186)
(-0.0135259 2.69518e-19 0.132374)
(-0.0117023 5.09164e-19 0.126223)
(-0.0083703 2.01571e-19 0.120892)
(-0.00425269 -1.08736e-18 0.119672)
(-0.00273859 3.53445e-19 0.120784)
(-0.00290333 4.16175e-19 0.120817)
(-0.00368343 -4.97595e-19 0.118796)
(-0.0033565 -8.27177e-19 0.115019)
(-0.00254033 -2.80453e-19 0.113268)
(-0.00323983 3.5375e-19 0.112946)
(-0.00463438 3.78508e-19 0.111153)
(-0.0058287 5.63633e-19 0.107381)
(-0.00620654 -5.46727e-19 0.102697)
(-0.00543836 6.58007e-19 0.0979794)
(-0.00363727 -5.96935e-19 0.0969963)
(-0.00456979 -1.45946e-19 0.0978055)
(-0.00645926 6.50734e-19 0.0972301)
(-0.00847152 -2.98351e-19 0.0963883)
(-0.0121456 1.9185e-19 0.0928327)
(-0.0134152 -1.71904e-19 0.0862526)
(-0.0136781 2.95877e-19 0.0819117)
(-0.0138877 -1.89331e-19 0.0786999)
(-0.0138572 -2.7183e-19 0.0749036)
(-0.0134652 -1.63434e-19 0.072204)
(-0.0139664 3.15546e-19 0.0695456)
(-0.0133408 -8.80912e-20 0.0667068)
(-0.0136598 1.22645e-19 0.0653282)
(-0.0140688 7.75453e-20 0.0638683)
(-0.0143786 -3.50678e-19 0.0633071)
(-0.0161296 8.9159e-20 0.0635555)
(-0.0196933 1.3765e-19 0.063596)
(-0.0250569 -3.38659e-20 0.0617656)
(-0.0299095 -1.25117e-19 0.0618487)
(-0.0417697 -1.5391e-19 0.0652999)
(-0.0562517 1.25597e-20 0.0774971)
(-0.0904068 3.48876e-20 0.0768393)
(-0.148921 5.71089e-18 -0.357835)
(-0.357704 8.05356e-20 -0.209911)
(-0.231266 -2.38463e-19 -0.246725)
(-0.207012 -1.61766e-19 -0.196969)
(-0.148542 4.81909e-20 -0.208402)
(-0.122252 -3.42506e-21 -0.190465)
(-0.0896784 3.68167e-20 -0.190445)
(-0.0671268 -8.22366e-20 -0.182241)
(-0.0454578 -2.22102e-20 -0.176631)
(-0.0290247 -3.80985e-19 -0.170329)
(-0.013512 7.05585e-20 -0.166119)
(-0.0789715 -2.05224e-23 0.000831155)
(-0.0803057 3.13709e-22 0.00252862)
(-0.079573 3.77074e-21 0.00425012)
(-0.0782754 2.41186e-20 0.00604491)
(-0.0764579 -2.97581e-19 0.00803479)
(-0.0740561 -2.63259e-19 0.0102158)
(-0.0710292 -2.00917e-19 0.0127106)
(-0.0673386 -2.46744e-19 0.015655)
(-0.0629224 3.4916e-19 0.0192479)
(-0.0576798 -7.1476e-20 0.0238408)
(-0.0514988 3.49594e-19 0.0299922)
(-0.0444633 -1.53823e-19 0.0383019)
(-0.0374461 1.95851e-19 0.0489965)
(-0.0334111 1.30666e-20 0.0612493)
(-0.0357233 2.52278e-19 0.0725534)
(-0.039248 -4.27641e-20 0.0816832)
(-0.042755 8.80242e-20 0.0894016)
(-0.0460001 5.66182e-20 0.0961825)
(-0.0489287 -1.08283e-19 0.10226)
(-0.0514786 2.5843e-19 0.107793)
(-0.053691 2.66147e-19 0.11289)
(-0.0555578 3.18752e-19 0.117614)
(-0.0571036 4.68616e-20 0.122012)
(-0.0583215 5.34777e-20 0.12612)
(-0.0592477 5.20155e-19 0.129966)
(-0.0598749 2.70721e-19 0.133564)
(-0.0602422 -4.00096e-19 0.136922)
(-0.0603264 -3.74027e-19 0.140036)
(-0.0601322 4.70388e-19 0.142925)
(-0.0596731 4.17091e-19 0.145609)
(-0.0589819 4.63453e-19 0.148095)
(-0.0580749 5.46493e-19 0.150374)
(-0.0569626 1.25856e-19 0.152445)
(-0.0556632 -4.39531e-19 0.154309)
(-0.054195 -2.23197e-19 0.155967)
(-0.0525798 2.97214e-19 0.157415)
(-0.0508382 -5.91842e-20 0.15865)
(-0.0489986 -7.21218e-19 0.15966)
(-0.0470812 2.29265e-19 0.160424)
(-0.0450896 -5.02798e-20 0.160926)
(-0.043028 -7.39646e-19 0.161156)
(-0.0408955 -3.21185e-19 0.161103)
(-0.0386653 2.12645e-19 0.160764)
(-0.0363072 -2.00441e-20 0.160153)
(-0.033792 -2.39116e-19 0.159297)
(-0.0310656 4.62977e-19 0.15824)
(-0.0280897 -3.73597e-19 0.157064)
(-0.0248556 -6.81707e-19 0.15587)
(-0.0213449 -3.26067e-19 0.154783)
(-0.0175276 2.07285e-19 0.154)
(-0.013379 6.54202e-20 0.153888)
(-0.00900961 -4.14974e-19 0.154758)
(-0.00530643 5.02009e-19 0.156494)
(-0.00466488 1.79167e-20 0.158144)
(-0.00540572 -3.16179e-19 0.158779)
(-0.00640918 3.73967e-19 0.158355)
(-0.00748824 4.75892e-19 0.157097)
(-0.00858105 -6.58703e-19 0.155208)
(-0.00966023 -9.4276e-19 0.152774)
(-0.01068 -3.46503e-19 0.149824)
(-0.0115513 2.20626e-19 0.146378)
(-0.0121428 7.55496e-20 0.142475)
(-0.0122338 -4.57917e-19 0.138209)
(-0.0115709 1.56572e-19 0.133766)
(-0.00990255 8.20978e-20 0.129468)
(-0.00705838 -3.56381e-19 0.125752)
(-0.00357184 -1.56112e-19 0.123312)
(-0.00213464 3.75563e-19 0.121944)
(-0.00210316 1.02028e-19 0.120601)
(-0.00253539 -5.49427e-19 0.118514)
(-0.00232367 -1.36695e-19 0.116042)
(-0.00187427 3.08784e-19 0.113919)
(-0.00250803 5.49429e-20 0.112151)
(-0.00370927 -4.66834e-19 0.109814)
(-0.00468008 2.34439e-19 0.106899)
(-0.00496254 3.24228e-20 0.103758)
(-0.00442559 -3.28511e-19 0.100782)
(-0.00312885 -6.4582e-20 0.0987098)
(-0.00387636 2.11211e-19 0.0975288)
(-0.00555539 9.77045e-20 0.0958028)
(-0.00749874 -4.49571e-19 0.0936096)
(-0.0105731 -9.59092e-20 0.0904532)
(-0.0117563 2.58653e-19 0.0864863)
(-0.0120602 7.69203e-20 0.0827352)
(-0.0122249 -2.46039e-19 0.0793268)
(-0.0122849 1.93103e-19 0.0759742)
(-0.0120273 3.61596e-20 0.0730096)
(-0.0123657 -2.57398e-19 0.070402)
(-0.0120798 5.77699e-21 0.0678334)
(-0.0122925 2.35362e-19 0.0658124)
(-0.0127367 1.13884e-19 0.0640337)
(-0.0133151 -2.35185e-19 0.0626202)
(-0.0146349 7.8207e-20 0.0614971)
(-0.0170354 9.31589e-20 0.059989)
(-0.0206817 -1.79289e-19 0.0573286)
(-0.0247468 6.7094e-20 0.0536106)
(-0.0351527 -9.56307e-20 0.0490017)
(-0.0480908 1.1871e-19 0.0386908)
(-0.0817656 -1.76785e-19 0.0241805)
(-0.0853921 -1.04853e-19 -0.0239114)
(-0.326132 5.3793e-19 -0.108435)
(-0.231298 5.57365e-20 -0.148311)
(-0.195675 1.55751e-19 -0.149166)
(-0.146157 1.2131e-20 -0.165336)
(-0.118206 3.1068e-19 -0.160969)
(-0.0883047 8.22243e-20 -0.16336)
(-0.0655552 -2.79242e-20 -0.160729)
(-0.0446799 -1.33956e-19 -0.158559)
(-0.0283667 1.90254e-19 -0.155855)
(-0.0133761 2.32996e-19 -0.153561)
(-0.0808631 2.43039e-23 0.00105138)
(-0.0822482 8.47477e-22 0.00318926)
(-0.0815892 1.66201e-20 0.0053645)
(-0.0804167 -2.86274e-19 0.00764325)
(-0.0787848 2.20987e-19 0.0101307)
(-0.0766621 2.99316e-19 0.0128316)
(-0.0740286 3.68491e-19 0.0158724)
(-0.0708859 -1.64584e-20 0.019378)
(-0.0672568 -2.81054e-19 0.0235034)
(-0.0632237 1.99925e-19 0.0284408)
(-0.0590223 -6.61756e-20 0.0343871)
(-0.0551476 -3.63475e-20 0.0415526)
(-0.0522839 -2.91348e-19 0.0501634)
(-0.0510965 9.86295e-20 0.0601854)
(-0.051761 5.08757e-20 0.0703737)
(-0.0532002 -3.82016e-20 0.0794408)
(-0.0548926 -3.98203e-19 0.0873404)
(-0.0566192 5.28471e-20 0.0943391)
(-0.0582672 -2.14988e-19 0.10064)
(-0.0597652 -6.0301e-19 0.10639)
(-0.0610838 -3.90644e-19 0.111697)
(-0.0621978 -6.59428e-20 0.116629)
(-0.0630947 -2.0807e-19 0.121239)
(-0.0637614 1.52799e-19 0.125562)
(-0.0641972 -1.59955e-19 0.129624)
(-0.0643956 7.63494e-19 0.13344)
(-0.0643595 6.76829e-19 0.137019)
(-0.0640809 -8.24549e-19 0.140363)
(-0.0635605 -1.18547e-18 0.143482)
(-0.0628061 -5.4511e-19 0.146385)
(-0.0618321 2.29161e-20 0.149075)
(-0.0606508 -1.51795e-19 0.151549)
(-0.0592738 2.45665e-19 0.153804)
(-0.0577163 1.17817e-18 0.155836)
(-0.0559947 3.85471e-19 0.157645)
(-0.054127 3.76522e-19 0.159224)
(-0.052131 2.75239e-19 0.160571)
(-0.0500271 -3.48947e-19 0.161676)
(-0.0478334 5.91494e-19 0.16253)
(-0.0455603 3.73593e-19 0.16312)
(-0.0432136 1.8662e-19 0.163441)
(-0.0407916 7.04136e-20 0.163487)
(-0.0382782 1.10152e-19 0.163264)
(-0.0356516 1.55143e-19 0.162789)
(-0.0328899 -7.70703e-19 0.162093)
(-0.029968 3.36843e-19 0.161222)
(-0.0268737 6.74839e-19 0.160245)
(-0.0236152 2.52833e-19 0.159245)
(-0.0202165 9.82348e-20 0.15832)
(-0.0167332 1.26335e-19 0.157588)
(-0.0133023 5.87093e-19 0.157164)
(-0.0102718 3.77267e-19 0.157164)
(-0.00800655 -3.25865e-19 0.157693)
(-0.00669531 -3.88521e-19 0.158383)
(-0.00613579 4.23453e-19 0.15854)
(-0.00608122 8.52637e-20 0.157955)
(-0.00622896 -6.5948e-19 0.156727)
(-0.00646689 -1.51484e-19 0.154916)
(-0.00672557 -3.1981e-19 0.152614)
(-0.00694747 -1.82047e-19 0.149853)
(-0.00705369 -1.98603e-19 0.146656)
(-0.00695189 -5.98365e-20 0.143061)
(-0.00653824 -4.94332e-19 0.139144)
(-0.00571861 2.14436e-19 0.135058)
(-0.00443289 5.36972e-19 0.13105)
(-0.00273915 -1.89906e-19 0.127475)
(-0.00103016 -4.3035e-19 0.1248)
(-4.1627e-05 -4.92918e-19 0.122919)
(0.000421044 -9.84077e-20 0.121117)
(0.000685822 4.2604e-19 0.118905)
(0.00092141 1.1461e-19 0.116446)
(0.000990573 -3.46818e-19 0.114162)
(0.000730547 -8.51375e-20 0.112003)
(0.000289699 3.75948e-19 0.109532)
(-0.000162093 -2.01278e-19 0.106657)
(-0.000471509 -6.88737e-20 0.103607)
(-0.000623705 2.72188e-19 0.100705)
(-0.000837484 6.85265e-20 0.0984395)
(-0.00162304 -2.83541e-19 0.09669)
(-0.00273362 -3.09827e-20 0.0947008)
(-0.00396695 3.52236e-19 0.0923441)
(-0.00540158 9.66916e-20 0.0893289)
(-0.00646436 -2.59832e-19 0.0857063)
(-0.00714924 -4.61988e-21 0.0821489)
(-0.00763039 2.43311e-19 0.0788122)
(-0.00800998 -2.34847e-19 0.0755498)
(-0.00833209 -6.57841e-21 0.0725838)
(-0.00885916 2.67069e-19 0.0699097)
(-0.0092817 1.87848e-20 0.0673393)
(-0.00991741 -2.31472e-19 0.0650649)
(-0.0107605 1.03625e-20 0.0629685)
(-0.0118169 2.21156e-19 0.0609962)
(-0.0133742 -1.13982e-19 0.0590803)
(-0.0155365 3.29519e-21 0.05694)
(-0.0186322 9.27241e-20 0.0544558)
(-0.0221949 3.11271e-20 0.0510063)
(-0.0289431 1.56771e-20 0.0478766)
(-0.0334315 8.06235e-20 0.0395338)
(-0.0355812 6.04796e-19 0.0301577)
(-0.0468047 6.40943e-19 -0.00434907)
(-0.240415 5.55929e-19 -0.0472941)
(-0.210395 1.05489e-19 -0.106005)
(-0.178737 -1.91608e-19 -0.110188)
(-0.143184 2.06238e-19 -0.130752)
(-0.115817 -1.46326e-20 -0.132602)
(-0.0903236 -1.55794e-19 -0.137854)
(-0.068362 -1.25569e-19 -0.138477)
(-0.0487515 2.83749e-19 -0.138448)
(-0.0314694 6.75213e-20 -0.137627)
(-0.0155994 -2.25024e-19 -0.136733)
(-0.0831688 6.15716e-23 0.00125236)
(-0.0846144 1.37967e-21 0.00377739)
(-0.0840499 2.64983e-20 0.00635474)
(-0.0830171 -6.04948e-21 0.00905327)
(-0.0815867 -7.74365e-20 0.0119641)
(-0.0797532 -2.21349e-21 0.0150936)
(-0.0775152 6.08874e-20 0.0185594)
(-0.0748947 4.7328e-20 0.0224671)
(-0.0719411 -2.85168e-21 0.026936)
(-0.0687472 1.21894e-21 0.032101)
(-0.0654644 2.04119e-19 0.0380987)
(-0.0623063 -8.01056e-21 0.0450635)
(-0.0595995 -5.08995e-20 0.0530326)
(-0.0578373 1.8906e-20 0.0617038)
(-0.0574914 2.63614e-19 0.0703649)
(-0.0581477 6.59392e-20 0.0784492)
(-0.0593256 2.1568e-19 0.0858566)
(-0.0607243 3.69463e-20 0.0926644)
(-0.0621621 2.36505e-21 0.0989604)
(-0.0635229 2.05131e-19 0.104819)
(-0.0647386 1.47655e-19 0.110301)
(-0.0657651 -9.096e-20 0.11545)
(-0.0665752 -5.64435e-19 0.1203)
(-0.067151 2.1055e-19 0.124877)
(-0.0674838 6.11881e-21 0.129197)
(-0.0675675 5.48644e-19 0.133273)
(-0.0674005 6.89521e-19 0.137111)
(-0.0669811 -1.74935e-19 0.140715)
(-0.0663114 1.62446e-19 0.144088)
(-0.0653987 3.81241e-20 0.147234)
(-0.0642543 -3.26354e-19 0.150153)
(-0.062891 -9.41203e-19 0.152841)
(-0.0613223 -7.60834e-19 0.155295)
(-0.0595637 3.35527e-19 0.157511)
(-0.0576319 1.77169e-19 0.159484)
(-0.055545 7.98458e-20 0.16121)
(-0.0533211 1.09997e-20 0.162683)
(-0.0509792 -5.62815e-19 0.163899)
(-0.0485367 3.6837e-19 0.16485)
(-0.0460068 2.04336e-19 0.165531)
(-0.0433981 6.9592e-20 0.16594)
(-0.0407137 4.82169e-20 0.166079)
(-0.0379492 2.15712e-20 0.165955)
(-0.0350962 6.64654e-20 0.165588)
(-0.0321463 -6.20727e-20 0.165007)
(-0.0290938 4.90015e-19 0.164256)
(-0.0259424 -1.52621e-19 0.16339)
(-0.0227115 -3.93462e-20 0.162476)
(-0.0194382 -2.41475e-20 0.161588)
(-0.0161839 2.88667e-20 0.160805)
(-0.0130469 5.10536e-19 0.160204)
(-0.010157 1.88626e-19 0.159844)
(-0.00771063 -7.20499e-19 0.159682)
(-0.00599938 -1.77757e-19 0.159466)
(-0.00503466 5.06592e-19 0.1589)
(-0.00455689 -3.41402e-19 0.157898)
(-0.00430846 -1.13129e-19 0.156404)
(-0.0042119 2.32867e-19 0.154445)
(-0.00420233 3.96299e-20 0.152053)
(-0.00421151 1.56374e-19 0.149273)
(-0.00416254 5.00973e-20 0.146161)
(-0.00397319 9.39473e-20 0.142783)
(-0.00355844 -4.04382e-19 0.139227)
(-0.00284693 3.28255e-19 0.135618)
(-0.00180547 5.94209e-19 0.132124)
(-0.000502903 2.00599e-19 0.128917)
(0.000813016 -4.37883e-19 0.12613)
(0.00170922 2.62121e-19 0.123689)
(0.00217574 8.37899e-20 0.121313)
(0.00241267 1.02772e-20 0.118856)
(0.00255498 2.02789e-20 0.116361)
(0.00256289 -4.3299e-19 0.113901)
(0.00233378 -1.08135e-19 0.11143)
(0.00193894 3.77175e-19 0.108847)
(0.00152599 4.71979e-19 0.106151)
(0.00119937 -6.5546e-19 0.103425)
(0.000953383 2.50213e-19 0.100781)
(0.000668844 5.39393e-20 0.0983251)
(4.98821e-05 -9.66111e-20 0.0959705)
(-0.000876165 3.42899e-20 0.0934839)
(-0.00197397 -3.51159e-20 0.0908169)
(-0.00318729 3.37459e-20 0.0878934)
(-0.00415937 -3.12292e-19 0.0847376)
(-0.00485715 4.71356e-19 0.0815442)
(-0.0053886 -1.66634e-19 0.078432)
(-0.00583636 -3.33397e-19 0.075422)
(-0.00622921 -8.14032e-20 0.0725767)
(-0.00671099 2.63777e-19 0.0698875)
(-0.00720071 2.0308e-20 0.0672867)
(-0.00780858 -1.10053e-20 0.0648191)
(-0.00857035 2.22242e-19 0.0624306)
(-0.00950074 -3.98846e-19 0.0600605)
(-0.0107193 1.09342e-19 0.0576162)
(-0.0122057 9.71616e-20 0.0547847)
(-0.0144993 -9.11484e-20 0.0517926)
(-0.0173404 -3.05366e-20 0.0470738)
(-0.0238377 -1.07502e-19 0.0431221)
(-0.0279974 -1.05842e-20 0.034794)
(-0.027158 1.0329e-19 0.0281849)
(-0.0258969 5.98354e-18 0.0214043)
(-0.192301 1.87282e-19 -0.0139548)
(-0.183551 -1.67435e-19 -0.0729532)
(-0.159732 -5.35329e-20 -0.0790037)
(-0.132769 1.1122e-19 -0.102415)
(-0.108087 1.33922e-19 -0.107163)
(-0.0859378 -5.2192e-20 -0.115054)
(-0.0654674 -1.85423e-20 -0.117962)
(-0.0470509 6.34927e-20 -0.119949)
(-0.0305331 -3.26909e-19 -0.120784)
(-0.0152983 2.74019e-20 -0.121025)
(-0.0858421 5.89321e-23 0.0014306)
(-0.0873519 1.61345e-21 0.00429069)
(-0.0868907 3.6067e-20 0.00721459)
(-0.0860029 4.54815e-20 0.0102697)
(-0.0847774 -6.73071e-20 0.0135328)
(-0.0832262 -1.00119e-20 0.0170084)
(-0.0813609 4.08923e-20 0.0207996)
(-0.0792138 -3.47699e-20 0.0249909)
(-0.076843 8.14639e-20 0.0296704)
(-0.0743413 -3.83532e-20 0.0349262)
(-0.0718459 2.48405e-19 0.0408321)
(-0.0695476 2.32032e-20 0.0474241)
(-0.0677131 -1.06867e-20 0.0546491)
(-0.0666249 -3.17367e-20 0.0623105)
(-0.0663823 2.74037e-19 0.070071)
(-0.0667615 3.88172e-20 0.0776068)
(-0.0674954 -1.73689e-19 0.0847583)
(-0.0683935 4.52564e-19 0.0914934)
(-0.0693283 -9.76033e-20 0.09783)
(-0.0702119 -3.64775e-19 0.103801)
(-0.0709842 -4.35621e-20 0.109439)
(-0.0716026 2.98961e-19 0.114775)
(-0.0720369 -8.52261e-20 0.119833)
(-0.0722652 1.47059e-19 0.12463)
(-0.0722726 -1.3857e-20 0.129181)
(-0.0720487 5.25518e-19 0.133492)
(-0.0715869 1.11936e-18 0.137569)
(-0.0708837 -4.82362e-19 0.141412)
(-0.0699392 -7.79723e-19 0.145022)
(-0.0687578 -2.03778e-19 0.148398)
(-0.0673473 4.31638e-19 0.151537)
(-0.0657184 -4.16605e-20 0.154434)
(-0.0638834 -2.61561e-20 0.157083)
(-0.0618568 8.47904e-19 0.159479)
(-0.059655 3.50072e-19 0.161616)
(-0.0572952 1.70198e-19 0.163488)
(-0.0547957 1.39455e-19 0.165091)
(-0.052175 -6.05397e-19 0.16642)
(-0.0494505 2.41554e-19 0.16747)
(-0.0466378 1.22224e-19 0.168241)
(-0.0437487 3.16213e-20 0.168732)
(-0.0407916 3.69805e-20 0.168949)
(-0.0377702 -3.12684e-20 0.168902)
(-0.0346859 -3.60478e-22 0.168611)
(-0.0315402 -9.45962e-19 0.168104)
(-0.0283383 2.10649e-19 0.167419)
(-0.0250929 5.89327e-19 0.166602)
(-0.0218289 2.41627e-19 0.165705)
(-0.0185856 1.03052e-19 0.164783)
(-0.0154204 6.83492e-20 0.163887)
(-0.0124152 6.08542e-19 0.163058)
(-0.00968067 2.76031e-19 0.162308)
(-0.00735523 -4.39349e-19 0.161599)
(-0.0055494 -5.32347e-19 0.160816)
(-0.00424275 4.26075e-19 0.159809)
(-0.00332067 7.1948e-20 0.158469)
(-0.00264429 -8.01115e-20 0.156753)
(-0.00212877 -1.40257e-20 0.154672)
(-0.0017065 -2.37074e-19 0.152257)
(-0.00130894 -5.08628e-20 0.149537)
(-0.000875509 -6.47222e-20 0.146545)
(-0.000353157 -2.8092e-20 0.143331)
(0.00030063 -4.97212e-19 0.13996)
(0.00110865 2.36559e-19 0.136523)
(0.00205039 5.40285e-19 0.133129)
(0.00304225 -2.3264e-19 0.129916)
(0.0039634 -5.06278e-19 0.126994)
(0.00465549 -5.8379e-19 0.124316)
(0.00512592 -1.57251e-19 0.121726)
(0.00544167 3.63649e-19 0.11912)
(0.00562953 1.16819e-19 0.116498)
(0.00567502 -4.13783e-19 0.11389)
(0.00557041 -1.38069e-19 0.111274)
(0.00534859 3.63775e-19 0.108596)
(0.00505042 -2.07794e-19 0.105845)
(0.00470134 -1.22372e-19 0.10307)
(0.00429181 3.28088e-19 0.100343)
(0.0037798 1.01279e-19 0.097727)
(0.00310911 -3.31386e-19 0.095182)
(0.00231017 -8.71692e-20 0.0925863)
(0.0014377 3.1511e-19 0.0898559)
(0.000521909 1.02476e-19 0.0869471)
(-0.000332225 -3.33796e-19 0.0838905)
(-0.00108215 -7.01561e-20 0.0807901)
(-0.00174565 2.80264e-19 0.0777286)
(-0.00236736 -2.63827e-19 0.0747418)
(-0.00298645 -7.57929e-20 0.0718704)
(-0.00365452 2.48908e-19 0.069116)
(-0.00436195 4.9482e-20 0.0664413)
(-0.00514475 -2.56559e-19 0.0638366)
(-0.00602646 -3.5728e-21 0.061254)
(-0.00702138 2.1851e-19 0.0586474)
(-0.00819592 -1.94487e-19 0.0559659)
(-0.00946183 -3.77062e-21 0.0529284)
(-0.0112683 3.63683e-20 0.050101)
(-0.0132685 2.59849e-20 0.0456205)
(-0.0177608 -5.83124e-20 0.0425187)
(-0.0196027 2.38108e-20 0.0343392)
(-0.016324 1.65547e-19 0.029023)
(-0.0149076 1.91172e-19 0.0233304)
(-0.142799 3.41032e-19 0.000300756)
(-0.15649 -8.35571e-20 -0.0515085)
(-0.141743 1.46029e-19 -0.0557927)
(-0.120762 2.37962e-19 -0.0797558)
(-0.099548 8.3119e-20 -0.0850957)
(-0.080807 -2.4857e-19 -0.0949212)
(-0.0623632 -6.82663e-20 -0.0989587)
(-0.0454709 1.85385e-19 -0.102279)
(-0.0298289 6.65675e-20 -0.104153)
(-0.0150966 -2.21311e-19 -0.105184)
(-0.0888342 2.49684e-23 0.00158471)
(-0.0904082 1.49824e-21 0.00472978)
(-0.0900531 3.97828e-20 0.00794639)
(-0.08931 8.76106e-20 0.0112982)
(-0.0882837 -1.12343e-19 0.0148475)
(-0.0869971 -2.64857e-20 0.0185966)
(-0.0854697 5.68195e-20 0.0226328)
(-0.0837374 4.74167e-20 0.0270216)
(-0.0818568 -2.32618e-19 0.0318268)
(-0.0799102 -2.73196e-19 0.0371049)
(-0.0780074 -4.95326e-20 0.0428931)
(-0.0762857 -1.2403e-20 0.0491923)
(-0.074901 -2.16165e-19 0.055943)
(-0.0739874 -2.09295e-19 0.0630093)
(-0.0735973 1.23007e-20 0.0701935)
(-0.0736539 -1.50217e-20 0.0772969)
(-0.074017 -1.34927e-19 0.0841831)
(-0.0745534 1.63735e-19 0.0907887)
(-0.0751555 4.11079e-20 0.0970985)
(-0.0757394 -3.19427e-19 0.103119)
(-0.0762413 -2.12673e-19 0.108865)
(-0.0766126 -1.6296e-19 0.114351)
(-0.0768165 -6.28729e-19 0.11959)
(-0.0768256 -1.72832e-19 0.124593)
(-0.0766198 -8.847e-20 0.129364)
(-0.0761846 3.33945e-20 0.133908)
(-0.0755106 1.44619e-18 0.138223)
(-0.0745922 2.50692e-20 0.142308)
(-0.0734284 -4.87003e-19 0.146159)
(-0.072022 -3.35043e-19 0.14977)
(-0.0703795 -2.42165e-19 0.153137)
(-0.0685107 -9.13818e-19 0.15625)
(-0.066428 -9.99933e-19 0.159102)
(-0.064146 3.49859e-19 0.161686)
(-0.0616814 4.46812e-19 0.163995)
(-0.0590525 1.54801e-19 0.166021)
(-0.0562784 7.8872e-19 0.167759)
(-0.0533788 -1.51328e-19 0.169206)
(-0.0503728 -1.12267e-19 0.170358)
(-0.0472785 2.25472e-19 0.171216)
(-0.0441113 7.75061e-20 0.171783)
(-0.0408847 2.59318e-19 0.172066)
(-0.0376089 1.23972e-19 0.172077)
(-0.034293 3.085e-19 0.171836)
(-0.0309466 -3.19486e-19 0.171368)
(-0.0275825 2.16014e-19 0.170707)
(-0.0242194 2.26963e-19 0.16989)
(-0.0208848 1.09007e-19 0.168959)
(-0.017617 1.61751e-19 0.167955)
(-0.0144661 9.48966e-20 0.166914)
(-0.0114953 6.24306e-19 0.165859)
(-0.00877875 2.9178e-19 0.164796)
(-0.00639264 -4.09802e-19 0.163696)
(-0.00439773 4.70758e-19 0.162497)
(-0.00280313 6.78783e-19 0.16111)
(-0.00154996 -7.76295e-19 0.15946)
(-0.000548176 -2.50151e-19 0.157508)
(0.000274814 -5.89391e-20 0.155258)
(0.00097433 -1.32891e-20 0.152728)
(0.00159647 1.05817e-19 0.149943)
(0.00218539 3.60291e-20 0.14694)
(0.00278493 4.69067e-19 0.143767)
(0.00343339 -2.308e-19 0.140487)
(0.00415574 -8.6865e-20 0.137174)
(0.00495109 3.49109e-19 0.133905)
(0.00578221 6.69995e-20 0.130748)
(0.00655199 -4.25971e-19 0.127741)
(0.00716469 -1.45397e-19 0.124866)
(0.00759612 -1.07081e-20 0.12206)
(0.00787095 4.32218e-19 0.119277)
(0.00801046 1.35045e-19 0.116511)
(0.00801739 -7.94199e-19 0.113759)
(0.00789315 -1.55273e-19 0.111009)
(0.0076586 7.44745e-19 0.108242)
(0.00734514 1.95127e-19 0.105458)
(0.00697475 -6.38649e-19 0.102675)
(0.0065449 5.52629e-19 0.0999137)
(0.00603011 1.2718e-19 0.0971828)
(0.00539579 -3.32449e-19 0.0944585)
(0.00464634 -1.56311e-20 0.0916958)
(0.00382094 3.43373e-19 0.0888678)
(0.0029759 1.04436e-19 0.0859655)
(0.00217039 -5.83542e-19 0.0830036)
(0.00143373 4.69958e-19 0.0800283)
(0.000759215 7.49399e-20 0.0770834)
(0.000119419 -5.53962e-19 0.0741877)
(-0.000514047 -5.16526e-20 0.0713554)
(-0.00116832 5.29686e-19 0.0685862)
(-0.00185164 9.52177e-20 0.0658623)
(-0.00258359 -2.40005e-19 0.0631676)
(-0.00336992 2.03403e-19 0.0604642)
(-0.00421414 -1.56331e-19 0.0577129)
(-0.00515698 -2.4135e-20 0.0548947)
(-0.00610664 4.96308e-20 0.0516213)
(-0.00748207 9.0981e-21 0.0486901)
(-0.00908759 -6.89087e-21 0.0439077)
(-0.0127334 -1.96326e-19 0.0408)
(-0.013639 -2.88339e-21 0.0329843)
(-0.00911633 4.14069e-19 0.0299355)
(-0.00812676 6.97575e-18 0.0234586)
(-0.1071 3.05083e-19 0.00699793)
(-0.133382 -1.03036e-19 -0.0327893)
(-0.125629 8.44646e-20 -0.0380258)
(-0.108067 9.28946e-20 -0.0608714)
(-0.090058 -5.0746e-20 -0.0661181)
(-0.0741218 -1.98589e-19 -0.077295)
(-0.0576466 -8.91063e-21 -0.0817924)
(-0.0424121 2.55648e-19 -0.086112)
(-0.0280058 -2.53114e-19 -0.08865)
(-0.0142715 -1.56539e-19 -0.0902037)
(-0.0920969 -1.56427e-23 0.00171468)
(-0.0937331 1.16323e-21 0.00509721)
(-0.0934823 3.91907e-20 0.00855589)
(-0.0928787 3.01375e-19 0.0121495)
(-0.0920405 -9.64801e-20 0.0159263)
(-0.0909959 -4.17321e-20 0.0198868)
(-0.0897687 6.85208e-20 0.0241043)
(-0.0883939 -3.41657e-20 0.0286289)
(-0.0869227 2.16183e-19 0.0335067)
(-0.0854231 8.99308e-20 0.0387745)
(-0.0839788 2.82572e-19 0.0444502)
(-0.0826855 1.457e-19 0.050522)
(-0.0816402 2.1803e-19 0.0569384)
(-0.0809183 1.37436e-19 0.0636043)
(-0.0805469 2.78134e-19 0.0703925)
(-0.0804902 1.39852e-19 0.0771727)
(-0.0806675 3.32342e-20 0.0838417)
(-0.0809846 4.42851e-19 0.0903355)
(-0.0813544 2.56982e-19 0.0966227)
(-0.0817035 -1.56771e-20 0.102692)
(-0.0819727 1.57183e-19 0.108541)
(-0.082115 2.97145e-19 0.114173)
(-0.0820931 -5.51439e-20 0.11959)
(-0.0818781 -3.80447e-19 0.124795)
(-0.081448 1.94717e-19 0.129787)
(-0.0807865 -6.42628e-19 0.134564)
(-0.0798822 6.72481e-19 0.139121)
(-0.0787284 7.20758e-19 0.143452)
(-0.0773228 4.70479e-20 0.147548)
(-0.0756671 1.38791e-19 0.151401)
(-0.073767 3.29674e-19 0.155002)
(-0.071632 7.737e-21 0.158339)
(-0.0692743 -4.96935e-19 0.161402)
(-0.0667092 -7.48987e-19 0.16418)
(-0.0639542 -1.94508e-19 0.166666)
(-0.0610286 -1.10219e-19 0.168851)
(-0.0579532 8.4067e-20 0.170728)
(-0.0547495 2.81319e-19 0.172294)
(-0.0514389 -4.46983e-19 0.173547)
(-0.0480424 -2.19359e-19 0.174488)
(-0.0445791 -2.06567e-19 0.175122)
(-0.041067 -2.83658e-21 0.175457)
(-0.0375219 4.67261e-20 0.175506)
(-0.033959 2.25118e-20 0.175288)
(-0.0303939 3.92772e-19 0.174827)
(-0.0268445 -3.56866e-19 0.174153)
(-0.023333 -1.68753e-19 0.173297)
(-0.0198872 -1.08099e-19 0.172294)
(-0.0165423 -1.49924e-20 0.171176)
(-0.0133399 -1.0004e-20 0.169971)
(-0.0103287 -5.14064e-19 0.168695)
(-0.00756072 -2.43028e-19 0.167353)
(-0.00508612 4.64046e-19 0.165927)
(-0.00294154 6.56091e-19 0.164381)
(-0.00113507 -3.17087e-19 0.162663)
(0.00036921 -1.15665e-19 0.160729)
(0.00163119 5.76831e-20 0.158554)
(0.00270405 -3.71356e-21 0.156135)
(0.00363643 2.12856e-20 0.153486)
(0.00447216 -2.1707e-21 0.150633)
(0.00525126 2.37263e-20 0.147608)
(0.00600697 4.96581e-20 0.144449)
(0.00676236 4.8281e-19 0.141202)
(0.00752604 -3.13601e-19 0.137918)
(0.00828698 -5.04074e-19 0.134652)