/*--------------------------------*- C++ -*----------------------------------*\
| =========                 |                                                 |
| \\      /  F ield         | OpenFOAM: The Open Source CFD Toolbox           |
|  \\    /   O peration     | Version:  v2106                                 |
|   \\  /    A nd           | Website:  www.openfoam.com                      |
|    \\/     M anipulation  |                                                 |
\*---------------------------------------------------------------------------*/
FoamFile
{
    version     2.0;
    format      ascii;
    arch        "LSB;label=32;scalar=64";
    class       volScalarField;
    location    "1.2";
    object      k;
}
// * * * * * * * * * * * * * * * * * * * * * * * * * * * * * * * * * * * * * //

dimensions      [0 2 -2 0 0 0 0];

internalField   nonuniform List<scalar> 
29678
(
0.000124098
0.000185089
0.00020202
0.000207755
0.000210224
0.000211483
0.000212197
0.000212634
0.000212919
0.000213122
0.000213281
0.000213417
0.000213541
0.000213659
0.000213775
0.00021389
0.000214004
0.000214116
0.000214226
0.000214331
0.000214431
0.000214527
0.00021462
0.000214709
0.000214795
0.000214876
0.000214952
0.000215022
0.000215087
0.000215144
0.000215195
0.000215239
0.000215274
0.000215302
0.000215321
0.000215333
0.000215339
0.000215339
0.000215336
0.000215332
0.000215329
0.000215329
0.000215336
0.000215349
0.000215365
0.000215384
0.000215405
0.000215431
0.00021546
0.000215493
0.000215529
0.000215569
0.00021561
0.000215653
0.000215697
0.000215741
0.000215783
0.000215822
0.000215858
0.000215888
0.000215911
0.000215927
0.000215932
0.000215927
0.00021591
0.00021588
0.000215837
0.000215779
0.000215707
0.000215619
0.000215518
0.000215404
0.000215279
0.000215149
0.000215018
0.000214895
0.000214789
0.00021471
0.000214665
0.000214661
0.000214702
0.000214799
0.000214962
0.000215182
0.000215463
0.000215807
0.000216211
0.00021667
0.000217172
0.000217721
0.000218321
0.000218953
0.000219608
0.000220295
0.000221022
0.000222078
0.000223943
0.000230604
0.000262424
0.000319086
0.000319318
0.000298997
0.000279367
0.00026644
0.000257456
0.000250042
0.000242455
0.000234909
0.00022699
0.000220339
0.0001241
0.000185111
0.000202044
0.000207787
0.000210269
0.000211541
0.00021227
0.000212723
0.000213026
0.000213246
0.00021342
0.000213568
0.000213702
0.000213826
0.000213946
0.000214063
0.00021418
0.000214295
0.000214407
0.000214517
0.000214625
0.000214728
0.000214828
0.000214923
0.000215014
0.0002151
0.00021518
0.000215254
0.000215322
0.000215383
0.000215436
0.00021548
0.000215514
0.000215538
0.000215553
0.000215559
0.000215558
0.000215553
0.000215545
0.000215539
0.000215538
0.000215545
0.000215556
0.000215571
0.000215592
0.000215619
0.000215652
0.000215691
0.000215735
0.000215785
0.000215839
0.000215898
0.00021596
0.000216024
0.000216089
0.000216155
0.000216219
0.00021628
0.000216337
0.000216388
0.000216431
0.000216464
0.000216487
0.000216497
0.000216493
0.000216475
0.00021644
0.000216387
0.000216318
0.00021623
0.000216125
0.000216003
0.000215869
0.000215725
0.000215578
0.000215438
0.000215315
0.000215218
0.000215156
0.000215134
0.000215158
0.000215236
0.000215376
0.000215585
0.000215868
0.000216225
0.000216655
0.00021715
0.000217707
0.000218322
0.000218988
0.000219692
0.00022042
0.000221186
0.000222029
0.000223429
0.000225918
0.000233123
0.000260362
0.000307
0.0003072
0.0002942
0.000278849
0.000266311
0.000257002
0.000248345
0.000239468
0.000231549
0.000224887
0.000219797
0.000124112
0.000185141
0.000202075
0.000207829
0.000210325
0.000211613
0.000212359
0.000212829
0.000213149
0.000213384
0.000213569
0.000213722
0.00021386
0.00021399
0.000214118
0.000214243
0.000214367
0.000214489
0.000214608
0.000214725
0.000214838
0.000214948
0.000215054
0.000215154
0.00021525
0.00021534
0.000215423
0.000215501
0.000215571
0.000215633
0.000215688
0.000215733
0.000215771
0.000215798
0.000215814
0.00021582
0.000215818
0.000215809
0.000215799
0.000215789
0.000215785
0.000215789
0.000215798
0.000215813
0.000215834
0.000215861
0.000215895
0.000215935
0.000215981
0.000216032
0.000216087
0.000216148
0.000216211
0.000216277
0.000216344
0.000216411
0.000216476
0.000216539
0.000216597
0.000216649
0.000216693
0.000216728
0.000216752
0.000216763
0.00021676
0.000216742
0.000216707
0.000216656
0.000216587
0.0002165
0.000216397
0.000216277
0.000216145
0.000216004
0.000215862
0.000215728
0.000215613
0.000215525
0.000215474
0.000215463
0.000215497
0.000215586
0.000215739
0.000215964
0.000216267
0.000216647
0.0002171
0.000217624
0.000218211
0.000218859
0.000219561
0.000220314
0.000221107
0.000221947
0.000222882
0.000224202
0.000226722
0.000233239
0.000258605
0.000296575
0.000296682
0.000289332
0.000277611
0.000266212
0.000257755
0.000249729
0.000240786
0.000232426
0.000225329
0.000220002
0.00012412
0.000185176
0.000202115
0.000207882
0.000210394
0.000211697
0.000212457
0.000212941
0.000213271
0.00021351
0.000213694
0.000213849
0.000213989
0.000214123
0.000214253
0.00021438
0.000214505
0.000214628
0.000214748
0.000214865
0.000214979
0.00021509
0.000215196
0.000215298
0.000215394
0.000215486
0.000215571
0.00021565
0.000215723
0.000215788
0.000215846
0.000215896
0.000215937
0.00021597
0.000215995
0.00021601
0.000216016
0.000216015
0.000216012
0.000216008
0.000216009
0.000216012
0.000216021
0.000216035
0.000216055
0.000216082
0.000216114
0.000216153
0.000216197
0.000216246
0.0002163
0.000216359
0.00021642
0.000216483
0.000216548
0.000216612
0.000216675
0.000216734
0.000216789
0.000216838
0.000216878
0.000216909
0.000216928
0.000216935
0.000216928
0.000216907
0.000216869
0.000216815
0.000216744
0.000216658
0.000216556
0.000216441
0.000216315
0.000216184
0.000216054
0.000215936
0.000215838
0.000215771
0.000215741
0.000215754
0.000215814
0.000215929
0.000216106
0.000216352
0.00021667
0.000217059
0.000217518
0.000218044
0.000218635
0.000219289
0.000220005
0.000220783
0.000221619
0.000222517
0.000223537
0.000224799
0.000227461
0.000234157
0.000257176
0.000287565
0.000287641
0.00028481
0.000275197
0.000264444
0.00025712
0.000250136
0.000241887
0.000233758
0.000226421
0.000220562
0.000124121
0.000185213
0.000202161
0.000207945
0.000210473
0.000211791
0.000212563
0.000213054
0.000213384
0.000213619
0.0002138
0.000213952
0.000214091
0.000214222
0.00021435
0.000214476
0.000214599
0.00021472
0.000214839
0.000214954
0.000215067
0.000215176
0.000215282
0.000215383
0.00021548
0.000215571
0.000215658
0.000215738
0.000215812
0.00021588
0.00021594
0.000215994
0.00021604
0.000216079
0.00021611
0.000216134
0.000216152
0.000216164
0.000216173
0.000216179
0.000216186
0.000216195
0.000216209
0.000216227
0.00021625
0.000216279
0.000216314
0.000216354
0.0002164
0.000216451
0.000216506
0.000216565
0.000216627
0.000216691
0.000216756
0.00021682
0.000216882
0.000216941
0.000216995
0.000217042
0.000217081
0.00021711
0.000217127
0.000217131
0.000217121
0.000217096
0.000217055
0.000216999
0.000216927
0.000216841
0.000216742
0.000216631
0.000216513
0.000216392
0.000216276
0.000216173
0.000216093
0.000216046
0.00021604
0.000216078
0.000216164
0.000216302
0.000216498
0.000216757
0.000217084
0.000217478
0.00021794
0.00021847
0.000219066
0.00021973
0.000220462
0.000221265
0.00022214
0.000223107
0.000224147
0.000225441
0.00022801
0.000234823
0.000255824
0.000280284
0.000280356
0.000280491
0.000272078
0.000261975
0.000255782
0.000250038
0.000242568
0.00023477
0.000227258
0.000221003
0.000124114
0.000185254
0.000202215
0.000208018
0.000210565
0.000211898
0.000212678
0.000213168
0.000213492
0.000213719
0.000213895
0.000214043
0.000214178
0.000214306
0.00021443
0.000214553
0.000214674
0.000214793
0.00021491
0.000215024
0.000215136
0.000215244
0.000215349
0.00021545
0.000215547
0.000215639
0.000215727
0.000215808
0.000215885
0.000215955
0.000216019
0.000216076
0.000216127
0.000216171
0.000216208
0.00021624
0.000216266
0.000216287
0.000216305
0.000216322
0.000216338
0.000216356
0.000216378
0.000216402
0.000216432
0.000216466
0.000216505
0.00021655
0.000216599
0.000216654
0.000216712
0.000216774
0.000216839
0.000216905
0.000216972
0.000217039
0.000217103
0.000217164
0.000217219
0.000217268
0.000217307
0.000217337
0.000217354
0.000217358
0.000217347
0.00021732
0.000217279
0.000217221
0.000217149
0.000217063
0.000216966
0.000216861
0.00021675
0.000216639
0.000216536
0.000216448
0.000216385
0.000216357
0.000216374
0.000216437
0.000216543
0.000216698
0.00021691
0.000217183
0.000217519
0.000217922
0.000218391
0.000218929
0.000219536
0.000220215
0.000220968
0.000221801
0.000222715
0.000223727
0.000224748
0.000226082
0.000228567
0.000235431
0.000254441
0.000274183
0.0002743
0.000276663
0.000268767
0.000258834
0.000253693
0.000249178
0.000242689
0.000235518
0.000228047
0.000221476
0.000124098
0.000185296
0.000202275
0.000208101
0.00021067
0.000212017
0.0002128
0.000213284
0.000213598
0.00021382
0.000213989
0.000214131
0.000214261
0.000214385
0.000214506
0.000214626
0.000214745
0.000214862
0.000214977
0.000215091
0.000215202
0.00021531
0.000215415
0.000215516
0.000215614
0.000215707
0.000215796
0.00021588
0.000215959
0.000216032
0.0002161
0.000216161
0.000216217
0.000216267
0.000216311
0.000216349
0.000216383
0.000216413
0.00021644
0.000216466
0.000216492
0.000216519
0.000216549
0.000216581
0.000216618
0.000216658
0.000216704
0.000216754
0.000216808
0.000216868
0.00021693
0.000216996
0.000217065
0.000217135
0.000217205
0.000217275
0.000217342
0.000217405
0.000217463
0.000217515
0.000217557
0.000217589
0.000217609
0.000217614
0.000217605
0.00021758
0.000217539
0.000217482
0.000217411
0.000217326
0.000217232
0.00021713
0.000217026
0.000216924
0.000216832
0.000216758
0.000216712
0.000216704
0.000216742
0.000216824
0.000216948
0.000217119
0.000217346
0.000217632
0.00021798
0.000218393
0.000218873
0.000219422
0.000220044
0.000220741
0.000221518
0.000222379
0.000223327
0.000224363
0.000225356
0.000226711
0.000229125
0.000235948
0.000252985
0.000268898
0.000269086
0.000272805
0.000265263
0.00025514
0.000250899
0.000247564
0.000242108
0.000235806
0.000228611
0.000221894
0.000124073
0.000185341
0.000202342
0.000208196
0.000210788
0.000212146
0.000212926
0.000213401
0.00021371
0.000213924
0.000214086
0.000214223
0.000214347
0.000214467
0.000214586
0.000214703
0.000214819
0.000214934
0.000215049
0.000215161
0.000215271
0.000215379
0.000215485
0.000215587
0.000215686
0.000215781
0.000215872
0.000215958
0.00021604
0.000216117
0.000216189
0.000216255
0.000216316
0.000216372
0.000216423
0.000216469
0.000216511
0.00021655
0.000216586
0.000216622
0.000216657
0.000216693
0.000216732
0.000216773
0.000216817
0.000216865
0.000216918
0.000216974
0.000217035
0.0002171
0.000217169
0.00021724
0.000217313
0.000217388
0.000217462
0.000217535
0.000217606
0.000217673
0.000217734
0.000217789
0.000217835
0.00021787
0.000217894
0.000217903
0.000217898
0.000217876
0.000217838
0.000217784
0.000217715
0.000217633
0.000217541
0.000217444
0.000217345
0.000217251
0.000217169
0.000217108
0.000217077
0.000217087
0.000217143
0.000217241
0.00021738
0.000217566
0.000217807
0.000218105
0.000218466
0.000218891
0.000219383
0.000219946
0.000220584
0.000221301
0.000222101
0.000222991
0.000223965
0.000225006
0.000225961
0.000227334
0.000229706
0.000236376
0.000250953
0.000264263
0.000264547
0.000267925
0.000261737
0.000250883
0.000247259
0.000245067
0.000240621
0.000235479
0.000228893
0.000222264
0.000124039
0.000185388
0.000202416
0.000208302
0.000210917
0.000212279
0.000213054
0.000213525
0.000213827
0.000214033
0.000214188
0.000214319
0.000214439
0.000214555
0.00021467
0.000214784
0.000214899
0.000215012
0.000215125
0.000215237
0.000215347
0.000215455
0.000215561
0.000215664
0.000215765
0.000215862
0.000215955
0.000216044
0.00021613
0.000216211
0.000216287
0.000216359
0.000216426
0.000216488
0.000216546
0.0002166
0.000216651
0.000216699
0.000216745
0.00021679
0.000216835
0.000216881
0.000216929
0.00021698
0.000217033
0.00021709
0.000217151
0.000217216
0.000217284
0.000217356
0.000217431
0.000217509
0.000217588
0.000217668
0.000217748
0.000217826
0.000217902
0.000217973
0.000218039
0.000218097
0.000218147
0.000218186
0.000218214
0.000218228
0.000218228
0.000218211
0.000218179
0.00021813
0.000218065
0.000217987
0.000217899
0.000217805
0.000217712
0.000217624
0.000217551
0.0002175
0.000217483
0.000217508
0.000217577
0.000217688
0.00021784
0.000218039
0.000218292
0.000218603
0.000218975
0.000219413
0.000219919
0.000220497
0.000221152
0.000221889
0.000222713
0.000223628
0.000224615
0.000225642
0.000226564
0.000227964
0.000230289
0.00023675
0.000248744
0.000260482
0.000260935
0.000262795
0.000258185
0.000245887
0.000243098
0.000241755
0.00023832
0.000234328
0.00022872
0.000222536
0.000123996
0.000185437
0.000202498
0.000208418
0.000211053
0.000212415
0.000213186
0.000213656
0.00021395
0.000214147
0.000214295
0.000214421
0.000214536
0.000214649
0.00021476
0.000214872
0.000214985
0.000215097
0.000215209
0.00021532
0.00021543
0.000215538
0.000215645
0.000215749
0.000215851
0.00021595
0.000216047
0.000216139
0.000216228
0.000216314
0.000216395
0.000216473
0.000216546
0.000216616
0.000216682
0.000216744
0.000216804
0.000216861
0.000216917
0.000216972
0.000217028
0.000217085
0.000217143
0.000217204
0.000217267
0.000217334
0.000217404
0.000217478
0.000217556
0.000217636
0.00021772
0.000217805
0.000217892
0.000217979
0.000218066
0.000218151
0.000218232
0.000218309
0.00021838
0.000218444
0.000218498
0.000218542
0.000218575
0.000218594
0.000218599
0.000218589
0.000218563
0.00021852
0.000218463
0.000218391
0.000218309
0.00021822
0.000218132
0.00021805
0.000217983
0.000217941
0.000217933
0.000217968
0.000218047
0.000218167
0.00021833
0.00021854
0.000218803
0.000219125
0.000219509
0.000219959
0.000220479
0.000221071
0.000221743
0.000222499
0.000223345
0.000224281
0.000225267
0.000226263
0.000227162
0.000228599
0.000230868
0.000237094
0.000247079
0.000257639
0.000258321
0.000258605
0.000255051
0.000241641
0.000239255
0.000238364
0.000235726
0.000232658
0.000228096
0.000222621
0.000123943
0.000185488
0.000202586
0.000208541
0.000211186
0.000212551
0.000213329
0.000213792
0.000214077
0.000214266
0.000214408
0.000214528
0.000214639
0.000214748
0.000214857
0.000214967
0.000215077
0.000215188
0.000215299
0.000215409
0.000215519
0.000215628
0.000215736
0.000215842
0.000215946
0.000216048
0.000216147
0.000216243
0.000216337
0.000216427
0.000216514
0.000216597
0.000216678
0.000216755
0.000216829
0.0002169
0.000216969
0.000217037
0.000217103
0.00021717
0.000217236
0.000217304
0.000217374
0.000217446
0.000217521
0.000217598
0.00021768
0.000217764
0.000217852
0.000217943
0.000218036
0.000218131
0.000218227
0.000218323
0.000218418
0.000218511
0.0002186
0.000218685
0.000218762
0.000218833
0.000218893
0.000218943
0.000218981
0.000219007
0.000219018
0.000219014
0.000218995
0.00021896
0.00021891
0.000218847
0.000218773
0.000218692
0.000218609
0.000218533
0.000218472
0.000218435
0.000218434
0.000218474
0.000218558
0.000218684
0.000218854
0.000219072
0.000219344
0.000219675
0.000220068
0.000220529
0.00022106
0.000221666
0.000222353
0.000223127
0.000223991
0.000224943
0.000225907
0.00022687
0.000227753
0.000229238
0.00023144
0.00023742
0.000246423
0.00025576
0.00025656
0.000255102
0.000252345
0.000238309
0.000235919
0.00023517
0.000233057
0.000230622
0.000226969
0.000222352
0.00012388
0.000185541
0.00020268
0.00020867
0.000211321
0.000212692
0.000213477
0.000213933
0.000214208
0.00021439
0.000214525
0.00021464
0.000214748
0.000214853
0.00021496
0.000215067
0.000215176
0.000215285
0.000215395
0.000215506
0.000215616
0.000215726
0.000215834
0.000215942
0.000216048
0.000216153
0.000216256
0.000216356
0.000216454
0.00021655
0.000216643
0.000216733
0.00021682
0.000216906
0.000216988
0.000217069
0.000217148
0.000217227
0.000217304
0.000217382
0.000217461
0.000217541
0.000217623
0.000217707
0.000217794
0.000217884
0.000217978
0.000218074
0.000218174
0.000218277
0.000218381
0.000218488
0.000218595
0.000218702
0.000218807
0.00021891
0.000219009
0.000219103
0.000219189
0.000219268
0.000219336
0.000219394
0.000219439
0.000219471
0.000219489
0.000219492
0.000219481
0.000219454
0.000219412
0.000219358
0.000219294
0.000219222
0.000219148
0.000219078
0.000219022
0.00021899
0.000218992
0.000219033
0.000219117
0.000219245
0.000219419
0.000219642
0.000219919
0.000220255
0.000220654
0.000221122
0.000221661
0.000222278
0.000222979
0.000223768
0.000224646
0.0002256
0.000226512
0.000227462
0.000228332
0.000229879
0.000232
0.000237792
0.00024677
0.000254644
0.000255462
0.000252296
0.000250072
0.00023589
0.000233226
0.000232342
0.000230537
0.000228531
0.000225642
0.000221894
0.000123809
0.000185597
0.000202781
0.000208799
0.000211461
0.00021284
0.000213629
0.000214076
0.000214343
0.000214517
0.000214647
0.000214757
0.000214861
0.000214964
0.000215067
0.000215173
0.00021528
0.000215389
0.000215498
0.000215609
0.000215719
0.00021583
0.00021594
0.00021605
0.000216159
0.000216267
0.000216373
0.000216478
0.000216581
0.000216682
0.000216782
0.000216879
0.000216975
0.000217068
0.00021716
0.000217251
0.000217341
0.000217431
0.00021752
0.00021761
0.000217702
0.000217795
0.00021789
0.000217988
0.000218089
0.000218193
0.0002183
0.000218411
0.000218524
0.000218641
0.000218759
0.000218879
0.000218999
0.000219119
0.000219237
0.000219352
0.000219463
0.000219568
0.000219665
0.000219754
0.000219832
0.000219899
0.000219953
0.000219993
0.000220019
0.00022003
0.000220026
0.000220007
0.000219975
0.00021993
0.000219875
0.000219813
0.000219749
0.000219688
0.000219639
0.000219611
0.000219613
0.000219653
0.000219734
0.00021986
0.000220032
0.000220254
0.000220532
0.000220868
0.000221269
0.000221739
0.000222284
0.000222908
0.000223618
0.000224418
0.000225301
0.000226239
0.000227087
0.00022804
0.000228895
0.000230516
0.000232544
0.000238232
0.000247337
0.000254102
0.000254876
0.000250356
0.000248452
0.000234481
0.000231449
0.000230158
0.000228477
0.000226706
0.000224395
0.000221419
0.000123727
0.000185654
0.000202884
0.000208917
0.000211603
0.000212998
0.000213783
0.000214222
0.00021448
0.000214647
0.000214772
0.000214878
0.000214979
0.000215079
0.00021518
0.000215284
0.00021539
0.000215498
0.000215607
0.000215718
0.000215829
0.000215941
0.000216053
0.000216165
0.000216277
0.000216388
0.000216499
0.000216609
0.000216717
0.000216825
0.000216931
0.000217036
0.00021714
0.000217243
0.000217345
0.000217447
0.000217548
0.00021765
0.000217752
0.000217855
0.000217961
0.000218068
0.000218178
0.000218291
0.000218407
0.000218527
0.00021865
0.000218776
0.000218905
0.000219037
0.000219171
0.000219307
0.000219442
0.000219578
0.000219711
0.00021984
0.000219965
0.000220084
0.000220195
0.000220296
0.000220386
0.000220464
0.000220528
0.000220578
0.000220613
0.000220633
0.000220638
0.000220628
0.000220604
0.000220568
0.000220522
0.000220469
0.000220415
0.000220365
0.000220324
0.0002203
0.000220303
0.00022034
0.000220415
0.000220534
0.0002207
0.000220917
0.000221189
0.000221521
0.000221918
0.000222385
0.000222929
0.000223555
0.00022427
0.000225075
0.000225945
0.000226837
0.000227634
0.000228601
0.000229442
0.000231144
0.000233071
0.000238712
0.000247915
0.000253967
0.00025466
0.000249067
0.00024764
0.000234053
0.000230608
0.00022881
0.000227146
0.000225447
0.000223475
0.000221049
0.000123636
0.000185713
0.000202991
0.000209039
0.000211748
0.000213161
0.00021394
0.000214371
0.00021462
0.000214781
0.0002149
0.000215003
0.0002151
0.000215198
0.000215298
0.000215401
0.000215506
0.000215613
0.000215722
0.000215833
0.000215946
0.000216059
0.000216173
0.000216288
0.000216403
0.000216518
0.000216633
0.000216748
0.000216863
0.000216977
0.000217091
0.000217204
0.000217317
0.00021743
0.000217543
0.000217656
0.000217769
0.000217884
0.000218
0.000218118
0.000218238
0.000218361
0.000218487
0.000218617
0.00021875
0.000218887
0.000219027
0.000219171
0.000219319
0.000219469
0.000219621
0.000219775
0.000219929
0.000220082
0.000220233
0.00022038
0.000220522
0.000220657
0.000220784
0.0002209
0.000221002
0.000221089
0.00022116
0.000221217
0.00022126
0.000221288
0.000221303
0.000221305
0.000221295
0.000221274
0.000221241
0.000221199
0.000221153
0.00022111
0.000221077
0.000221059
0.000221064
0.000221098
0.000221167
0.000221276
0.000221431
0.000221637
0.000221897
0.000222218
0.000222604
0.000223062
0.000223598
0.00022422
0.000224933
0.000225732
0.000226564
0.000227402
0.000228158
0.000229144
0.000229969
0.000231754
0.00023358
0.000239181
0.000248532
0.000254062
0.000254675
0.000248254
0.000247571
0.000234288
0.00023047
0.000228229
0.000226495
0.000224737
0.000222884
0.000220832
0.000123536
0.000185774
0.000203104
0.000209167
0.000211895
0.000213326
0.000214099
0.00021452
0.000214762
0.000214917
0.000215031
0.000215131
0.000215226
0.000215322
0.00021542
0.000215522
0.000215626
0.000215733
0.000215843
0.000215955
0.000216068
0.000216184
0.0002163
0.000216418
0.000216537
0.000216656
0.000216776
0.000216897
0.000217018
0.000217139
0.000217261
0.000217383
0.000217506
0.000217629
0.000217754
0.000217879
0.000218006
0.000218134
0.000218265
0.000218399
0.000218535
0.000218675
0.000218819
0.000218967
0.000219119
0.000219275
0.000219436
0.0002196
0.000219768
0.00021994
0.000220113
0.000220288
0.000220463
0.000220638
0.000220809
0.000220977
0.000221139
0.000221292
0.000221431
0.000221555
0.000221664
0.000221758
0.000221837
0.000221902
0.000221953
0.000221991
0.000222016
0.000222029
0.000222033
0.000222027
0.000222013
0.000221994
0.000221967
0.000221932
0.000221904
0.000221891
0.000221897
0.00022193
0.000221993
0.000222092
0.000222232
0.000222421
0.000222664
0.000222967
0.000223334
0.000223775
0.000224297
0.000224907
0.000225609
0.000226379
0.000227144
0.000227943
0.000228663
0.000229666
0.000230474
0.000232325
0.000234051
0.000239613
0.000249198
0.000253168
0.000254624
0.000247314
0.000247946
0.000234909
0.000230843
0.000228232
0.000226356
0.000224424
0.000222513
0.000220752
0.000123427
0.000185837
0.000203221
0.000209301
0.000212045
0.000213492
0.000214258
0.000214671
0.000214906
0.000215055
0.000215165
0.000215262
0.000215355
0.000215449
0.000215547
0.000215647
0.000215751
0.000215859
0.000215969
0.000216082
0.000216197
0.000216314
0.000216433
0.000216555
0.000216677
0.000216802
0.000216927
0.000217054
0.000217182
0.000217311
0.000217442
0.000217573
0.000217707
0.000217841
0.000217978
0.000218117
0.000218258
0.000218401
0.000218548
0.000218699
0.000218853
0.000219012
0.000219175
0.000219343
0.000219517
0.000219695
0.000219878
0.000220065
0.000220257
0.000220452
0.00022065
0.00022085
0.00022105
0.000221249
0.000221445
0.000221635
0.000221811
0.000221972
0.000222119
0.000222251
0.000222369
0.000222471
0.00022256
0.000222634
0.000222694
0.000222742
0.000222778
0.000222803
0.000222818
0.000222826
0.000222828
0.000222828
0.000222826
0.000222825
0.000222813
0.000222801
0.000222807
0.000222837
0.000222894
0.000222983
0.000223109
0.000223278
0.000223498
0.000223775
0.000224117
0.000224532
0.00022503
0.000225618
0.00022629
0.000226999
0.000227699
0.000228467
0.000229153
0.000230169
0.000230956
0.00023284
0.000234506
0.000239959
0.000249813
0.000252216
0.000254455
0.000247912
0.000248804
0.000235867
0.00023161
0.000228687
0.000226613
0.000224393
0.000222334
0.000220589
0.000123308
0.000185902
0.000203334
0.000209441
0.0002122
0.000213659
0.000214418
0.000214823
0.000215051
0.000215194
0.000215302
0.000215396
0.000215487
0.00021558
0.000215677
0.000215777
0.000215881
0.000215988
0.000216099
0.000216214
0.000216331
0.000216451
0.000216573
0.000216698
0.000216825
0.000216955
0.000217086
0.00021722
0.000217355
0.000217493
0.000217633
0.000217775
0.000217919
0.000218066
0.000218216
0.000218369
0.000218525
0.000218686
0.00021885
0.000219019
0.000219193
0.000219372
0.000219557
0.000219748
0.000219945
0.000220147
0.000220356
0.00022057
0.000220788
0.000221011
0.000221237
0.000221466
0.000221694
0.000221919
0.000222132
0.000222332
0.000222517
0.000222688
0.000222845
0.000222988
0.000223116
0.00022323
0.000223329
0.000223414
0.000223486
0.000223545
0.000223592
0.000223628
0.000223656
0.000223676
0.000223691
0.000223704
0.000223718
0.000223737
0.000223764
0.000223794
0.000223801
0.000223825
0.000223874
0.000223951
0.000224062
0.000224212
0.000224406
0.000224653
0.000224961
0.000225341
0.000225804
0.000226354
0.000226965
0.000227598
0.000228243
0.000228983
0.000229638
0.000230657
0.000231418
0.000233303
0.000234988
0.000240189
0.000250305
0.000252386
0.000254946
0.000249478
0.000250236
0.000237102
0.000232623
0.00022947
0.000227106
0.000224593
0.000222286
0.000220389
0.000123179
0.000185967
0.00020343
0.000209584
0.000212365
0.000213827
0.000214579
0.000214976
0.000215197
0.000215336
0.00021544
0.000215532
0.000215622
0.000215714
0.00021581
0.00021591
0.000216014
0.000216123
0.000216235
0.000216351
0.00021647
0.000216593
0.000216719
0.000216848
0.00021698
0.000217115
0.000217253
0.000217394
0.000217538
0.000217684
0.000217834
0.000217987
0.000218144
0.000218304
0.000218468
0.000218637
0.00021881
0.000218988
0.000219171
0.000219361
0.000219556
0.000219758
0.000219966
0.000220183
0.000220406
0.000220636
0.000220873
0.000221117
0.000221367
0.000221621
0.00022188
0.000222138
0.000222388
0.000222624
0.000222848
0.000223059
0.000223256
0.00022344
0.000223609
0.000223765
0.000223907
0.000224034
0.000224147
0.000224246
0.000224331
0.000224402
0.000224462
0.00022451
0.00022455
0.000224581
0.000224608
0.000224632
0.000224658
0.000224688
0.000224727
0.000224781
0.000224849
0.000224896
0.000224938
0.000225002
0.000225096
0.000225224
0.000225392
0.000225606
0.000225875
0.000226211
0.000226622
0.000227104
0.000227628
0.000228192
0.000228789
0.000229502
0.000230127
0.00023114
0.000231871
0.000233751
0.000235491
0.000240375
0.000250363
0.000252673
0.000255389
0.000251543
0.000251786
0.000238494
0.000233745
0.00023044
0.000227724
0.000224939
0.000222319
0.000220191
0.000123041
0.000186032
0.000203522
0.00020973
0.000212535
0.000213996
0.00021474
0.000215128
0.000215344
0.000215479
0.00021558
0.000215671
0.00021576
0.000215851
0.000215947
0.000216047
0.000216152
0.000216261
0.000216375
0.000216493
0.000216615
0.000216741
0.000216871
0.000217005
0.000217142
0.000217283
0.000217428
0.000217577
0.000217729
0.000217886
0.000218046
0.000218211
0.000218381
0.000218555
0.000218735
0.00021892
0.000219111
0.000219309
0.000219513
0.000219724
0.000219943
0.00022017
0.000220406
0.00022065
0.000220903
0.000221164
0.000221434
0.000221712
0.000221996
0.000222285
0.000222568
0.00022284
0.000223101
0.00022335
0.000223588
0.000223813
0.000224025
0.000224224
0.000224411
0.000224584
0.000224742
0.000224886
0.000225016
0.000225131
0.000225231
0.000225318
0.000225392
0.000225454
0.000225505
0.000225549
0.000225586
0.00022562
0.000225653
0.00022569
0.000225737
0.000225796
0.000225872
0.000225964
0.000226047
0.000226126
0.000226209
0.000226315
0.000226454
0.000226635
0.00022686
0.000227139
0.00022747
0.000227854
0.000228295
0.000228798
0.000229352
0.000230035
0.000230635
0.000231632
0.000232338
0.00023423
0.000235942
0.000240591
0.00024852
0.000252374
0.000255612
0.000253979
0.000253024
0.000239978
0.000234941
0.000231514
0.000228449
0.000225387
0.000222412
0.000220023
0.000122894
0.000186097
0.000203616
0.000209877
0.000212707
0.000214164
0.0002149
0.000215281
0.000215491
0.000215623
0.000215722
0.000215811
0.000215899
0.00021599
0.000216086
0.000216187
0.000216293
0.000216403
0.000216519
0.00021664
0.000216765
0.000216894
0.000217028
0.000217167
0.00021731
0.000217458
0.00021761
0.000217767
0.000217929
0.000218096
0.000218269
0.000218446
0.00021863
0.00021882
0.000219016
0.000219219
0.00021943
0.000219649
0.000219876
0.000220111
0.000220357
0.000220611
0.000220876
0.000221151
0.000221438
0.000221734
0.000222041
0.000222356
0.00022267
0.000222974
0.000223269
0.000223554
0.00022383
0.000224095
0.000224349
0.000224592
0.000224823
0.000225041
0.000225248
0.000225441
0.000225621
0.000225786
0.000225935
0.00022607
0.000226189
0.000226294
0.000226384
0.000226461
0.000226527
0.000226582
0.00022663
0.000226672
0.000226712
0.000226755
0.000226804
0.000226864
0.000226938
0.000227031
0.000227137
0.000227235
0.000227334
0.000227442
0.000227565
0.00022771
0.000227882
0.000228084
0.000228325
0.000228622
0.000228987
0.000229431
0.000229943
0.000230595
0.000231176
0.000232157
0.000232842
0.00023476
0.000236386
0.00024087
0.000248667
0.000253023
0.000253848
0.000256895
0.000254306
0.000241421
0.000236119
0.000232617
0.000229271
0.000225926
0.000222639
0.000219987
0.000122737
0.000186162
0.000203713
0.000210026
0.000212879
0.000214332
0.00021506
0.000215434
0.000215639
0.000215767
0.000215865
0.000215953
0.000216041
0.000216132
0.000216228
0.00021633
0.000216437
0.000216549
0.000216667
0.00021679
0.000216919
0.000217052
0.000217191
0.000217335
0.000217485
0.000217639
0.0002178
0.000217966
0.000218138
0.000218316
0.000218501
0.000218693
0.000218891
0.000219098
0.000219312
0.000219535
0.000219767
0.000220009
0.000220261
0.000220523
0.000220797
0.000221083
0.00022138
0.000221691
0.000222014
0.000222349
0.000222689
0.000223022
0.000223347
0.000223665
0.000223974
0.000224276
0.000224569
0.000224853
0.000225127
0.000225391
0.000225644
0.000225887
0.000226118
0.000226336
0.00022654
0.00022673
0.000226904
0.000227062
0.000227204
0.00022733
0.00022744
0.000227535
0.000227616
0.000227685
0.000227743
0.000227794
0.00022784
0.000227887
0.000227936
0.000227993
0.00022806
0.000228141
0.000228242
0.000228348
0.000228446
0.000228545
0.000228648
0.000228762
0.000228891
0.000229038
0.000229211
0.000229431
0.000229723
0.000230107
0.000230575
0.000231195
0.000231765
0.000232735
0.000233403
0.000235364
0.000236882
0.000241377
0.000249198
0.000254284
0.000253388
0.000260408
0.000256202
0.000242779
0.000237246
0.000233713
0.000230162
0.000226554
0.000223037
0.000220122
0.00012257
0.000186229
0.000203815
0.000210175
0.000213052
0.0002145
0.000215219
0.000215587
0.000215787
0.000215913
0.000216009
0.000216096
0.000216184
0.000216275
0.000216372
0.000216475
0.000216583
0.000216698
0.000216818
0.000216944
0.000217077
0.000217215
0.000217359
0.000217509
0.000217665
0.000217827
0.000217996
0.000218172
0.000218355
0.000218546