/*--------------------------------*- C++ -*----------------------------------*\
| =========                 |                                                 |
| \\      /  F ield         | OpenFOAM: The Open Source CFD Toolbox           |
|  \\    /   O peration     | Version:  v2106                                 |
|   \\  /    A nd           | Website:  www.openfoam.com                      |
|    \\/     M anipulation  |                                                 |
\*---------------------------------------------------------------------------*/
FoamFile
{
    version     2.0;
    format      ascii;
    arch        "LSB;label=32;scalar=64";
    class       volScalarField;
    location    "1.2";
    object      nut;
}
// * * * * * * * * * * * * * * * * * * * * * * * * * * * * * * * * * * * * * //

dimensions      [0 2 -1 0 0 0 0];

internalField   nonuniform List<scalar> 
29678
(
1.01211e-05
0.000129963
0.000368075
0.000677273
0.000967517
0.00118557
0.00132428
0.00140138
0.00143962
0.00145682
0.00146399
0.00146688
0.00146808
0.00146866
0.00146901
0.00146926
0.00146948
0.00146965
0.00146978
0.00146986
0.0014699
0.0014699
0.00146987
0.00146983
0.00146977
0.00146969
0.0014696
0.0014695
0.00146939
0.00146927
0.00146915
0.00146903
0.0014689
0.00146878
0.00146865
0.00146853
0.00146842
0.00146832
0.00146824
0.00146818
0.00146816
0.00146817
0.00146823
0.0013395
0.00113079
0.000971305
0.00084803
0.000750524
0.000671985
0.000607837
0.000554844
0.00051064
0.000473486
0.000442071
0.000415387
0.000392654
0.000373265
0.000356742
0.000342698
0.000330819
0.000320861
0.000312631
0.000305971
0.000300752
0.000296866
0.000294216
0.000292755
0.000292448
0.000293276
0.000295239
0.000298345
0.00030262
0.000308103
0.000314824
0.000322789
0.000331961
0.000342259
0.000353602
0.000365983
0.000379367
0.000393241
0.000317614
0.000342912
0.0003733
0.000410653
0.000456437
0.000512749
0.000581937
0.000664208
0.000757726
0.000847606
0.000937015
0.00078522
0.000668227
0.000500801
0.000378438
0.000490182
0.000663996
7.35862e-05
0.00014297
8.34907e-05
5.16205e-05
4.05038e-05
3.84613e-05
4.30071e-05
3.72188e-05
3.63342e-05
3.05589e-05
3.62847e-05
5.55962e-05
1.01461e-05
0.000130045
0.00036833
0.00067768
0.000967976
0.001186
0.00132464
0.00140171
0.00143992
0.00145712
0.00146429
0.00146716
0.00146833
0.00142767
0.00135021
0.00128469
0.0012301
0.0011854
0.0011492
0.00112018
0.00109863
0.0010854
0.0010804
0.00108353
0.00109529
0.00111672
0.00114949
0.00119605
0.00125999
0.00134726
0.0014674
0.00146767
0.00146756
0.00146746
0.00146736
0.00146727
0.00146719
0.00146713
0.0014671
0.0014671
0.00146715
0.00139657
0.00113768
0.000947257
0.000804739
0.000695283
0.000609463
0.000541003
0.000485553
0.000440056
0.000402327
0.000370763
0.000344164
0.000321625
0.000302444
0.000286076
0.000272096
0.000260167
0.000250017
0.000241423
0.00023421
0.000228238
0.000223397
0.000219592
0.000216747
0.0002148
0.000213715
0.000213468
0.000214043
0.000215435
0.00021765
0.000220701
0.000224614
0.000229413
0.000235114
0.000241716
0.000249203
0.000257553
0.000266778
0.000276931
0.000288064
0.000300951
0.000317296
0.000337654
0.000363228
0.000394546
0.000431117
0.000472687
0.000518736
0.000572243
0.000643538
0.000750817
0.000957832
0.0010725
0.0013336
0.000569302
0.000339214
0.000197099
6.85931e-05
0.000133346
9.36306e-05
5.94423e-05
3.68819e-05
4.17331e-05
3.77335e-05
3.29826e-05
2.94865e-05
2.61608e-05
2.87771e-05
2.99107e-05
1.01672e-05
0.00013016
0.000368689
0.000678266
0.000968647
0.00118663
0.00132518
0.00140217
0.00144034
0.00145751
0.00146465
0.00139179
0.00129693
0.00121709
0.00114886
0.00109101
0.00104301
0.00100408
0.000972673
0.000947633
0.000928657
0.000916099
0.000909851
0.000909809
0.000916203
0.000929612
0.000950986
0.000981733
0.0010239
0.0010804
0.00115555
0.00125579
0.00139157
0.00146627
0.00146622
0.00146618
0.00146615
0.00146614
0.00146615
0.00146619
0.00146629
0.00130988
0.00107466
0.000897163
0.00076347
0.000660346
0.000579346
0.000514713
0.000462349
0.000419364
0.000383693
0.000353824
0.00032863
0.000307258
0.000289051
0.000273498
0.000260198
0.000248834
0.000239149
0.00023093
0.000224014
0.000218268
0.000213584
0.000209873
0.000207057
0.000205085
0.000203919
0.000203534
0.000203915
0.000205059
0.000206974
0.00020968
0.000213208
0.000217595
0.000222878
0.000229092
0.000236275
0.000244478
0.00025381
0.000264511
0.000277131
0.000291647
0.000308547
0.000329341
0.000354833
0.000385375
0.000421061
0.000461568
0.000508854
0.000567045
0.000644948
0.000756404
0.000989454
0.00126924
0.00131122
0.00125792
0.000417805
0.000216596
6.57071e-05
0.000122906
8.03536e-05
6.64949e-05
5.22291e-05
4.40219e-05
4.0316e-05
3.35355e-05
3.02711e-05
2.81873e-05
3.24757e-05
3.25361e-05
1.01941e-05
0.00013029
0.000369103
0.000678947
0.000969432
0.00118736
0.00132581
0.00140268
0.00144076
0.00145785
0.00135898
0.00126054
0.00118016
0.00111282
0.00105592
0.00100846
0.000969588
0.000938091
0.00091268
0.000892278
0.000876601
0.000865923
0.000860305
0.00085978
0.000864524
0.000874893
0.000891443
0.000914981
0.000946649
0.000988116
0.00104151
0.00110976
0.00119629
0.00130492
0.00143851
0.00146563
0.00146563
0.00146565
0.00146569
0.00146577
0.0013772
0.00116885
0.000989675
0.000845108
0.000729804
0.000637652
0.000563441
0.000503125
0.000453613
0.000412573
0.00037826
0.000349366
0.000324892
0.000304064
0.00028628
0.000271062
0.000258034
0.000246892
0.000237391
0.000229331
0.000222552
0.000216926
0.000212345
0.00020872
0.000205976
0.000204061
0.000202938
0.000202578
0.000202969
0.000204106
0.000205998
0.000208666
0.000212143
0.000216475
0.000221709
0.000227905
0.000235137
0.000243484
0.000253016
0.000263879
0.000276362
0.000290931
0.000308196
0.000328819
0.000353362
0.000382288
0.000416354
0.000456051
0.000503178
0.00056211
0.000641062
0.000759256
0.00100479
0.00133276
0.00129706
0.00124101
0.000342542
0.000168874
6.98232e-05
0.000114399
7.43925e-05
7.17241e-05
5.1168e-05
4.78843e-05
4.25532e-05
3.86556e-05
3.55731e-05
3.41469e-05
3.5878e-05
3.11186e-05
1.02267e-05
0.000130427
0.000369544
0.00067968
0.000970282
0.00118816
0.00132647
0.00140318
0.0014411
0.00137019
0.00126851
0.0011865
0.00111825
0.00106086
0.00101222
0.000971186
0.000937056
0.000909009
0.00088618
0.000867807
0.000853668
0.000843857
0.000838423
0.000837417
0.00084098
0.000849365
0.000862949
0.000882244
0.000907918
0.000940788
0.000981707
0.00103138
0.00109026
0.00115776
0.00123173
0.0013051
0.00136424
0.00138845
0.0013581
0.00126985
0.00114326
0.00100702
0.000880769
0.000770665
0.00067748
0.000599722
0.000535098
0.000481317
0.000436371
0.000398597
0.000366678
0.000339576
0.000316469
0.000296704
0.000279759
0.000265213
0.000252728
0.000242029
0.000232895
0.000225147
0.000218637
0.000213242
0.000208861
0.000205407
0.000202811
0.00020102
0.000199996
0.000199712
0.000200154
0.000201319
0.000203215
0.000205866
0.00020931
0.000213597
0.00021879
0.000224973
0.000232238
0.000240624
0.000250091
0.000260726
0.00027291
0.000287161
0.000303883
0.000323351
0.000346057
0.000372518
0.000403245
0.000438993
0.00048121
0.000532762
0.000598405
0.000687467
0.00082538
0.000933623
0.00104349
0.00118913
0.000360269
0.000173049
7.17609e-05
9.95929e-05
6.56065e-05
7.85332e-05
5.86275e-05
5.11815e-05
4.58938e-05
4.18729e-05
3.95617e-05
3.87827e-05
4.02607e-05
3.41474e-05
1.02651e-05
0.000130567
0.000370003
0.000680447
0.000971175
0.00118899
0.00132712
0.00140358
0.00138799
0.00128619
0.00120291
0.00113261
0.00107262
0.00102172
0.000978149
0.000940925
0.000909458
0.000883182
0.000861501
0.000843903
0.000830168
0.000820273
0.000814218
0.000812017
0.000813743
0.000819536
0.000829602
0.000844209
0.000863665
0.000888277
0.000918244
0.000953482
0.000993334
0.00103595
0.00107766
0.00111306
0.00113495
0.00113421
0.00110348
0.00104201
0.000958444
0.00086695
0.000777365
0.000694635
0.00062103
0.000557044
0.000502121
0.000455248
0.000415298
0.000381216
0.000352076
0.000327097
0.000305634
0.000287156
0.000271229
0.0002575
0.000245674
0.000235513
0.000226822
0.000219442
0.00021324
0.000208105
0.000203948
0.000200684
0.000198254
0.000196605
0.000195698
0.000195505
0.000196012
0.000197217
0.000199131
0.000201778
0.000205202
0.000209461
0.00021463
0.000220802
0.000228046
0.000236319
0.000245509
0.00025576
0.000267555
0.000281292
0.000297125
0.000315382
0.000336407
0.000360675
0.000388431
0.000420093
0.000456608
0.000499337
0.000549767
0.000608948
0.000686715
0.000695564
0.000767387
0.000722268
0.000342624
0.000170566
7.78318e-05
8.76916e-05
5.82007e-05
8.59965e-05
5.95164e-05
5.32449e-05
4.97179e-05
4.70771e-05
4.5935e-05
4.52251e-05
4.56833e-05
3.73566e-05
1.03099e-05
0.000130711
0.000370474
0.000681241
0.0009721
0.00118982
0.00132765
0.00138948
0.00129463
0.00121228
0.0011427
0.00108095
0.00102788
0.000982185
0.000942602
0.000908398
0.000879092
0.000854256
0.00083346
0.000816337
0.000802672
0.000792383
0.000785425
0.000781771
0.000781425
0.000784428
0.000790845
0.000800752
0.000814207
0.0008312
0.000851568
0.00087486
0.000900131
0.000925624
0.000948429
0.000964403
0.000968802
0.000957275
0.00092736
0.000880169
0.000820502
0.000754833
0.000688573
0.000625214
0.000566856
0.000514475
0.00046825
0.000427871
0.000392799
0.000362419
0.000336126
0.000313359
0.000293632
0.000276531
0.000261704
0.000248863
0.000237764
0.0002282
0.000219997
0.000213016
0.00020714
0.000202273
0.000198334
0.000195256
0.000192984
0.000191473
0.000190682
0.000190586
0.000191168
0.000192426
0.000194371
0.000197031
0.000200451
0.000204692
0.000209834
0.000215956
0.000223074
0.000231085
0.000239902
0.000249756
0.000261123
0.000274302
0.000289394
0.000306533
0.000325963
0.000348039
0.000372892
0.000400712
0.000431485
0.000465379
0.00050184
0.000537219
0.000587855
0.000553399
0.000608191
0.000542406
0.000338284
0.000174495
8.83797e-05
7.52943e-05
4.99768e-05
9.467e-05
6.14638e-05
5.796e-05
5.6268e-05
5.35475e-05
5.34151e-05
5.24152e-05
5.23309e-05
4.21125e-05
1.03613e-05
0.000130856
0.000370958
0.000682058
0.00097303
0.0011905
0.00132783
0.00128322
0.00120748
0.00114206
0.00108181
0.00102831
0.00098158
0.000940656
0.000904773
0.00087341
0.000846189
0.000822787
0.000802892
0.000786226
0.000772602
0.000761906
0.000754063
0.000749011
0.000746703
0.000747107
0.000750188
0.000755896
0.000764136
0.000774723
0.000787319
0.000801338
0.000815821
0.000829281
0.000839588
0.000844038
0.000839763
0.000824444
0.00079723
0.000759315
0.000713587
0.000663684
0.000612771
0.000563139
0.000516376
0.000473409
0.000434639
0.000400093
0.000369566
0.000342735
0.000319227
0.000298665
0.0002807
0.00026502
0.000251349
0.000239456
0.000229139
0.000220222
0.000212555
0.000206014
0.000200502
0.000195931
0.000192228
0.000189341
0.000187224
0.000185838
0.000185155
0.00018515
0.000185807
0.000187124
0.000189109
0.00019179
0.00019521
0.00019943
0.000204519
0.000210528
0.000217428
0.000225107
0.000233554
0.000243066
0.00025402
0.0002666
0.00028089
0.000296972
0.000315036
0.000335084
0.000357191
0.000381338
0.00040697
0.000433562
0.000459464
0.000478633
0.000520203
0.000462632
0.000524634
0.000446253
0.000324639
0.000182107
0.000112191
6.36895e-05
4.2598e-05
0.000103835
6.19705e-05
6.61943e-05
6.62177e-05
6.2583e-05
6.27876e-05
6.0849e-05
6.00792e-05
4.77958e-05
1.04196e-05
0.000131004
0.000371452
0.000682888
0.000973884
0.0011906
0.00124721
0.00118405
0.00112705
0.00107272
0.00102146
0.000975451
0.000934472
0.000898009
0.000865625
0.000836968
0.00081177
0.000789795
0.000770819
0.000754632
0.000741072
0.000730021
0.000721385
0.000715078
0.00071102
0.000709128
0.000709306
0.00071143
0.000715322
0.000720716
0.000727213
0.000734225
0.0007409
0.000746062
0.000748197
0.00074556
0.000736477
0.000719789
0.000695305
0.00066397
0.000627545
0.000588197
0.000547911
0.000508202
0.000470225
0.00043474
0.00040217
0.000372671
0.000346215
0.000322653
0.000301773
0.000283334
0.000267093
0.000252824
0.000240317
0.000229387
0.000219872
0.000211627
0.000204524
0.000198458
0.000193343
0.000189101
0.000185668
0.000182998
0.000181051
0.000179797
0.000179214
0.000179289
0.000180013
0.000181383
0.000183407
0.000186108
0.000189526
0.000193711
0.000198718
0.000204568
0.000211208
0.000218556
0.000226683
0.000235875
0.00024642
0.000258438
0.000271946
0.000287016
0.000303721
0.000322012
0.000341824
0.000362824
0.000384465
0.000405637
0.000424722
0.000433356
0.000474841
0.00040186
0.00047856
0.000382051
0.000323173
0.000192686
0.000163921
5.3862e-05
3.61657e-05
0.000114404
6.27921e-05
7.96504e-05
7.9737e-05
7.3543e-05
7.32336e-05
7.01275e-05
6.89135e-05
5.45473e-05
1.04853e-05
0.000131152
0.000371955
0.000683708
0.000974449
0.00118798
0.00114246
0.0010948
0.00105152
0.00100597
0.000962833
0.00092337
0.000887531
0.000855153
0.000826004
0.000799873
0.00077659
0.000755993
0.000737923
0.000722223
0.000708759
0.000697417
0.000688097
0.0006807
0.000675126
0.000671264
0.000668985
0.000668127
0.000668476
0.000669746
0.000671543
0.000673338
0.000674432
0.000673937
0.000670808
0.000663942
0.000652378
0.000635555
0.00061352
0.000586976
0.000557019
0.000525024
0.000492297
0.000459864
0.000428553
0.000398953
0.00037144
0.000346201
0.000323287
0.00030265
0.000284176
0.000267719
0.000253116
0.000240203
0.000228826
0.00021884
0.000210116
0.000202538
0.000196002
0.000190421
0.000185717
0.000181822
0.000178682
0.000176253
0.0001745
0.000173397
0.000172927
0.000173081
0.00017386
0.000175268
0.000177317
0.000180028
0.00018343
0.000187565
0.000192467
0.000198135
0.000204517
0.00021157
0.000219441
0.000228323
0.000238432
0.000249875
0.000262671
0.000276824
0.000292329
0.000309142
0.000327133
0.000345887
0.000364667
0.000382538
0.000398068
0.000399283
0.000445909
0.000360644
0.000456005
0.00034038
0.000329139
0.000209377
0.000177879
4.63162e-05
3.09247e-05
0.000126103
6.35041e-05
9.6092e-05
9.52656e-05
8.57266e-05
8.43205e-05
8.00476e-05
7.85808e-05
6.21768e-05
1.05588e-05
0.000131303
0.000372464
0.000684458
0.000973908
0.00108576
0.00105008
0.00101648
0.000980685
0.000942944
0.000906714
0.000872804
0.000841478
0.000812755
0.000786537
0.000762723
0.000741217
0.00072192
0.000704723
0.000689512
0.000676178
0.000664617
0.00065473
0.000646417
0.000639567
0.000634059
0.000629751
0.000626468
0.000623994
0.000622052
0.000620289
0.000618261
0.000615418
0.000611113
0.00060464
0.00059531
0.000582579
0.00056619
0.000546267
0.000523326
0.000498067
0.000471402
0.000444217
0.000417234
0.000391038
0.000366081
0.000342672
0.000320988
0.00030111
0.000283041
0.000266727
0.000252082
0.000238999
0.000227364
0.000217063
0.000207985
0.000200029
0.000193103
0.000187123
0.000182016
0.000177718
0.00017417
0.000171327
0.00016915
0.000167606
0.000166673
0.000166334
0.000166581
0.000167416
0.000168851
0.000170906
0.000173603
0.00017697
0.000181034
0.000185814
0.000191299
0.000197454
0.000204285
0.000211888
0.000220447
0.00023015
0.000241058
0.0002532
0.000266551
0.000281097
0.00029679
0.000313433
0.000330635
0.000347804
0.000363954
0.000378741
0.000374612
0.00042993
0.000335043
0.000450037
0.000313539
0.000350843
0.000229846
0.00010219
4.09955e-05
2.67508e-05
0.000132233
6.32762e-05
0.000109569
0.000110016
9.77016e-05
9.51479e-05
9.02501e-05
8.89249e-05
7.06604e-05
1.06406e-05
0.000131454
0.000372976
0.000685086
0.000972983
0.000994155
0.000968618
0.000945403
0.00091536
0.000883996
0.000853423
0.000824217
0.000796803
0.0007713
0.000747701
0.000725982
0.000706105
0.000688018
0.000671653
0.000656928
0.000643758
0.000632052
0.00062172
0.000612663
0.000604773
0.000597927
0.000591984
0.000586775
0.000582098
0.000577704
0.000573293
0.000568508
0.000562932
0.000556104
0.000547552
0.000536851
0.0005237
0.000507994
0.000489871
0.000469717
0.000447996
0.000425313
0.000402308
0.000379486
0.00035727
0.000335999
0.000315919
0.000297186
0.000279886
0.000264043
0.000249639
0.000236624
0.000224929
0.000214477
0.000205182
0.000196963
0.000189741
0.000183442
0.000177999
0.000173352
0.000169448
0.000166238
0.000163685
0.000161757
0.000160425
0.000159668
0.000159471
0.000159826
0.000160733
0.000162201
0.000164251
0.000166913
0.000170217
0.000174186
0.000178831
0.000184136
0.000190079
0.000196727
0.000204092
0.000212354
0.000221667
0.000232051
0.000243558
0.000256238
0.000270049
0.000284924
0.000300702
0.000317099
0.000333589
0.000349365
0.000365717
0.000357367
0.000424461
0.000321707
0.000459978
0.00029846
0.000403487
0.000249429
6.28898e-05
3.73894e-05
2.34452e-05
0.000123477
6.09686e-05
0.000114571
0.000119516
0.000107765
0.000104876
0.000100566
0.000100059
8.01095e-05
1.07313e-05
0.000131607
0.00037348
0.000685268
0.000939807
0.000916767
0.00089707
0.000879796
0.000855113
0.00082906
0.000803116
0.000777884
0.000753835
0.000731141
0.00070986
0.000690018
0.00067162
0.00065465
0.00063907
0.000624827
0.000611854
0.000600078
0.000589417
0.000579781
0.000571069
0.000563166
0.000555939
0.000549235
0.000542875
0.000536647
0.000530305
0.00052357
0.000516134
0.000507674
0.000497878
0.000486489
0.000473344
0.000458416
0.000441834
0.000423885
0.000404911
0.000385288
0.000365497
0.00034591
0.000326832
0.000308509
0.00029114
0.000274854
0.000259731
0.000245802
0.000233067
0.0002215
0.000211057
0.000201683
0.000193317
0.000185898
0.000179365
0.00017366
0.000168729
0.000164524
0.000160998
0.000158115
0.000155842
0.000154153
0.000153024
0.000152439
0.000152385
0.000152855
0.000153846
0.000155363
0.000157418
0.00016004
0.000163263
0.000167115
0.000171608
0.000176737
0.000182501
0.000188922
0.000196075
0.000204074
0.000213003
0.000222924
0.00023388
0.00024596
0.000259171
0.00027348
0.000288783
0.000304918
0.000321462
0.000338054
0.000357731
0.000346442
0.000427743
0.000317881
0.000482166
0.000296659
0.000506951
0.000259624
4.41239e-05
3.5857e-05
2.09918e-05
0.000100552
5.58609e-05
0.000111171
0.000119072
0.000113769
0.000112539
0.000110777
0.000112314
9.08636e-05
1.08314e-05
0.00013176
0.000373946
0.000684503
0.000865029
0.000849193
0.000835112
0.000820125
0.000799799
0.000778042
0.000755877
0.000733975
0.000712793
0.00069253
0.000673283
0.000655111
0.000638047
0.000622101
0.00060726
0.000593492
0.000580748
0.000568969
0.000558088
0.000548024
0.000538686
0.000529972
0.000521765
0.000513931
0.000506316
0.000498747
0.000491029
0.000482948
0.000474282
0.000464807
0.000454321
0.00044267
0.000429772
0.00041564
0.000400387
0.000384224
0.000367423
0.00035021
0.000332939
0.000315905
0.00029933
0.000283388
0.000268238
0.000253984
0.000240696
0.000228406
0.00021712
0.000206827
0.000197499
0.000189097
0.000181578
0.000174896
0.000169002
0.000163852
0.000159403
0.000155615
0.00015245
0.000149878
0.000147873
0.000146412
0.000145476
0.000145053
0.000145134
0.000145714
0.000146792
0.000148367
0.000150446
0.000153044
0.00015619
0.000159917
0.000164247
0.000169189
0.000174811
0.000181015
0.000187886
0.000195604
0.000204176
0.000213661
0.000224173
0.000235745
0.00024845
0.000262328
0.00027739
0.000293633
0.000310804
0.00032884
0.000353364
0.000340909
0.000438978
0.000323683
0.000518394
0.000308764
0.000708415
0.000265564
3.4015e-05
3.78368e-05
1.95631e-05
7.96553e-05
4.87633e-05
0.000102449
0.000110121
0.000115311
0.000117681
0.000120653
0.000126123
0.000103397
1.09415e-05
0.000131914
0.000374382
0.000683459
0.000798738
0.000789381
0.000779831
0.000766288
0.000749187
0.00073078
0.000711691
0.000692562
0.00067381
0.000655638
0.000638165
0.000621469
0.000605603
0.000590593
0.000576444
0.000563142
0.000550653
0.000538934
0.000527927
0.000517567
0.000507776
0.000498464
0.000489533
0.000480869
0.000472346
0.000463825
0.000455155
0.000446177
0.000436733
0.000426669
0.000415859
0.000404213
0.000391696
0.000378338
0.000364238
0.000349552
0.0003345
0.000319219
0.000303956
0.000288978
0.00027442
0.000260415
0.000247091
0.000234532
0.00022279
0.000211898
0.000201866
0.000192687
0.000184346
0.000176813
0.000170059
0.000164046
0.000158739
0.000154102
0.000150102
0.000146702
0.000143875
0.000141594
0.00013984
0.000138592
0.000137839
0.000137568
0.000137774
0.000138455
0.000139613
0.000141247
0.00014336
0.000145955
0.000149049
0.000152668
0.000156842
0.000161618
0.000166995
0.000172965
0.000179627
0.000187026
0.000195227
0.000204329
0.000214386
0.000225492
0.000237758
0.000251291
0.000266202
0.000282681
0.000300822
0.000320549
0.000350764
0.000339233
0.000457641
0.00033944
0.000579894
0.000345412
0.000964976
0.00027484
2.84422e-05
5.20024e-05
1.91288e-05
7.15442e-05
4.10154e-05
9.25066e-05
9.67524e-05
0.000114672
0.000120863
0.000130734
0.000142687
0.000118922
1.10628e-05
0.000132068
0.000374802
0.000682382
0.000742063
0.000735793
0.000729555
0.000717399
0.000702809
0.000687043
0.000670467
0.000653647
0.000636948
0.000620569
0.000604638
0.000589243
0.000574447
0.000560289
0.000546787
0.000533939
0.000521726
0.000510118
0.00049907
0.000488528
0.000478429
0.000468698
0.000459254
0.000450005
0.000440849
0.000431679
0.00042238
0.000412836
0.000402936
0.000392579
0.000381686
0.000370209
0.00035814
0.000345517
0.000332422
0.000318976
0.000305351
0.000291651
0.000278028
0.000264708
0.000251794
0.000239388
0.000227572
0.00021643
0.000205995
0.000196296
0.000187344
0.000179136
0.000171663
0.000164901
0.000158832
0.000153424
0.00014865
0.000144483
0.000140891
0.000137845
0.000135328
0.000133317
0.000131796
0.00013075
0.000130167
0.00013004
0.000130363
0.000131136
0.000132361
0.000134044
0.000136186
0.000138792
0.000141862
0.000145403
0.00014945
0.000154088
0.00015919
0.000164873
0.000171284
0.000178369
0.000186245
0.000194971
0.000204582
0.000215232
0.000227043
0.000240185
0.000254897
0.000271491
0.000290451
0.000311819
0.00034772
0.000339025
0.000480937
0.000364619
0.000691775
0.000413951
0.000948832
0.000303337
2.6503e-05
0.000514318
1.97584e-05
6.11866e-05
3.54665e-05
7.91957e-05
8.49109e-05
0.000112858
0.00012403
0.000142999
0.000165261
0.000140635
1.11961e-05
0.000132224
0.0003752
0.000681381
0.000692497
0.0006872
0.000683477
0.000672783
0.000660253
0.000646608
0.000632089
0.00061719
0.000602224
0.000587379
0.000572783
0.000558531
0.000544689
0.000531304
0.000518404
0.000505997
0.000494076
0.000482621
0.000471601
0.000460973
0.000450687
0.000440686
0.000430902
0.000421263
0.000411691
0.000402104
0.000392418
0.00038255
0.000372424
0.000361975
0.000351157
0.000339948
0.000328356
0.00031642
0.00030421
0.000291819
0.000279377
0.000266985
0.000254716
0.000242752
0.000231196
0.000220107
0.000209557
0.000199604
0.000190274
0.000181594
0.000173572
0.000166208
0.000159494
0.000153415
0.000147954
0.000143088
0.000138789
0.00013504
0.000131817
0.000129096
0.000126863
0.000125101
0.000123798
0.000122939
0.000122517
0.000122523
0.000122956
0.000123814
0.0001251
0.000126821
0.00012898
0.000131586
0.000134638
0.000138132
0.000142143
0.000146589
0.000151458
0.000156936
0.000163014
0.000169766
0.000177283
0.000185587
0.000194756
0.000204912
0.000216202
0.000228852
0.000243169
0.000259601
0.000278853
0.000301052
0.000341078
0.000336843
0.000499495
0.000394464
0.000895309
0.000523346
0.000932895
0.000400582
2.88625e-05
4.05959e-05
2.32777e-05
4.01827e-05
3.52998e-05
6.25807e-05
8.13407e-05
0.000106623
0.000130272
0.00015925
0.000200074
0.00017579
1.13429e-05
0.000132379
0.000375422
0.000656831
0.000648657
0.000643712
0.000641321
0.000632047
0.000621213
0.000609272
0.000596435
0.000583128
0.00056962
0.000556084
0.000542643
0.000529391
0.000516397
0.000503712
0.000491371
0.000479389
0.00046777
0.000456502
0.000445566
0.00043493
0.000424558
0.000414404
0.000404418
0.000394544
0.000384724
0.000374898
0.000365005
0.000354988
0.000344798
0.000334394
0.000323753
0.00031287
0.000301759
0.00029046
0.00027903
0.000267547
0.000256102
0.000244806
0.000233664
0.000222824
0.000212401
0.000202412
0.000192922
0.000183972
0.000175582
0.000167773
0.000160553
0.000153921
0.000147871
0.000142391
0.000137462
0.000133068
0.000129193
0.00012582
0.000122929
0.000120504
0.000118532
0.000117
0.000115896
0.000115211
0.000114937
0.000115069
0.000115603
0.000116541
0.000117884
0.000119638
0.000121809
0.000124405
0.000127436
0.000130916
0.000134842
0.000139108
0.000143848
0.000149106
0.0001549
0.00016133
0.000168413
0.000176235
0.000184917
0.000194526
0.000205213
0.00021722
0.000230866
0.000246679
0.000265426
0.000287261
0.000328106
0.00032791
0.000494935
0.000414315
0.00105837
0.000617898
0.000667693
0.000740207
4.04302e-05
2.04768e-05
2.83335e-05
2.57977e-05
4.18472e-05
5.22719e-05
8.73194e-05
9.79345e-05
0.000143085
0.000178222
0.000256756
0.000243657
1.15041e-05
0.000132529
0.000375245
0.000615575
0.000609336
0.000605363
0.000603062
0.00059493
0.000585428
0.000574839
0.000563367
0.000551377
0.000539093
0.00052667
0.000514225
0.000501847
0.000489606
0.000477555
0.000465731
0.000454157
0.000442843
0.000431788
0.00042098
0.000410399
0.000400019
0.000389807
0.000379727
0.000369739
0.0003598
0.000349867
0.0003399
0.000329861
0.000319719
0.000309453
0.000299053
0.000288523
0.000277884
0.000267172
0.000256436
0.000245738
0.000235148
0.000224764
0.000214587
0.000204697
0.000195212
0.000186153
0.000177558
0.00016946
0.000161868
0.000154806
0.000148278
0.000142279
0.000136801
0.000131835
0.000127371
0.000123396
0.000119898
0.000116863
0.000114273
0.000112114
0.00011038
0.000109057
0.000108135
0.000107609
0.000107472
0.000107718
0.000108348
0.00010936
0.000110757
0.000112543
0.000114724
0.000117306
0.000120294
0.000123757
0.000127535
0.000131704
0.000136377
0.000141448
0.000146993
0.000153081
0.00015975
0.000167094
0.000175196
0.000184155
0.00019414
0.000205333
0.000218014
0.000232659
0.000249964
0.00027008
0.000307921
0.00030961
0.00045563
0.000399789
0.000978223
0.000541828
0.000512448
0.000637259
9.75274e-05
1.72158e-05
3.71743e-05
2.29585e-05
5.59836e-05
4.87946e-05
9.5435e-05
9.28553e-05
0.000157801
0.000193443
0.000330953
0.00041373
1.16809e-05
0.000132674
0.000374894
0.000577627
0.00057377
0.000570882
0.000568396
0.000561096
0.000552615
0.000543098
0.000532735
0.000521831
0.000510574
0.000499099
0.000487512
0.000475897
0.000464324
0.000452844
0.000441498
0.000430313
0.000419306
0.00040848
0.000397834
0.000387356
0.00037703
0.000366835
0.000356746
0.000346735
0.000336773
0.000326833
0.000316888
0.000306916
0.0002969
0.00028683
0.000276708
0.000266543
0.000256358
0.000246185
0.000236069
0.000226058
0.000216207
0.000206587
0.000197244
0.000188166
0.000179463
0.000171196
0.000163359
0.000155988
0.000149082
0.00014266
0.000136721
0.00013126
0.000126274
0.000121757
0.000117703
0.000114099
0.000110937
0.000108204
0.000105881
0.000103963
0.000102442
0.000101308
0.000100553
0.000100172
0.00010016
0.000100513
0.00010123
0.000102311
0.000103758
0.000105575
0.000107766
0.000110338
0.000113308
0.000116667
0.000120365
0.000124476
0.000128989
0.000133931
0.000139292
0.000145092
0.00015138
0.000158242
0.00016574
0.000173977
0.000183099
0.000193292
0.000204737
0.000217777
0.000232955
0.000250253
0.000282034
0.000282992
0.000392628
0.000348079
0.000615345
0.000388838
0.000380009
0.000301401
0.000113911
1.85987e-05
7.50474e-05
2.59398e-05
6.58203e-05
5.0563e-05
9.1889e-05
9.32388e-05
0.000157164
0.000194329
0.000333865
0.000793698
1.1875e-05
0.000132814
0.000374478
0.000543714
0.000541433
0.000539447
0.000536831
0.000530182
0.000522497
0.000513839
0.000504382
0.000494377
0.000483981
0.000473311
0.000462464
0.000451517
0.000440536
0.000429572
0.000418667
0.000407852
0.000397146
0.000386561
0.000376101
0.000365762
0.000355538
0.000345416
0.00033538
0.000325416
0.000315504
0.000305629
0.000295775
0.000285932
0.000276093
0.000266257
0.000256431
0.00024663
0.000236876
0.0002272
0.000217637
0.000208231
0.000199024
0.000190066
0.000181424
0.000173044
0.000165024
0.000157421
0.000150238
0.000143485
0.000137164
0.00013128
0.000125843
0.000120845
0.000116289
0.000112167
0.000108473
0.000105197
0.000102332
9.98672e-05
9.77826e-05
9.60799e-05
9.47505e-05
9.37867e-05
9.31824e-05
9.29325e-05
9.30332e-05
9.34825e-05
9.42793e-05
9.54234e-05
9.69168e-05
9.87627e-05
0.000100964
0.000103521
0.000106507
0.000109777
0.000113396
0.000117418
0.000121794
0.000126563
0.000131727
0.000137282
0.000143273
0.000149697
0.000156622
0.000164131
0.000172303
0.000181311
0.000191347
0.000202556
0.000215222
0.000229122
0.000253509
0.000252329
0.000325968
0.000285994
0.000412776
0.000276142
0.000286534
0.000180852
4.7987e-05
2.28251e-05
0.000200996
3.10037e-05
6.09998e-05
5.56938e-05
7.99507e-05
9.80171e-05
0.000139913
0.000178698
0.00025687
0.000450783
1.20883e-05
0.000132952
0.000374046
0.000513148
0.000511907
0.000510652
0.00050798
0.000501871
0.000494822
0.000486864
0.000478149
0.000468892
0.000459221
0.000449239
0.00043903
0.000428667
0.000418211
0.000407713
0.000397215
0.000386749
0.000376338
0.000365999
0.000355741
0.000345568
0.00033548
0.000325472
0.000315538
0.00030567
0.000295861
0.000286102
0.000276387
0.000266715
0.000257085
0.000247504
0.000237982
0.000228536
0.000219189
0.000209968
0.000200904
0.000192033
0.00018339
0.00017501
0.000166958
0.000159201
0.000151766
0.000144726
0.000138101
0.000131867
0.000126039
0.000120619
0.000115615
0.000111023
0.000106842
0.000103065
9.96882e-05
9.67024e-05
9.41016e-05
9.18718e-05
9.00001e-05
8.84897e-05
8.73307e-05
8.65182e-05
8.60481e-05
8.59156e-05
8.61175e-05
8.66534e-05
8.75222e-05
8.8724e-05
9.02602e-05
9.2135e-05
9.43542e-05
9.6939e-05
9.98439e-05
0.000103039
0.000106613
0.000110537
0.000114817
0.00011944
0.000124408
0.000129729
0.000135402
0.000141438
0.000147856
0.000154678
0.000161934
0.00016973
0.000178246
0.000187548
0.000197649
0.000208152
0.000225341
0.000222156
0.000268318
0.000232424
0.000301529
0.000204411
0.000224262
0.000125672
3.30783e-05
3.40828e-05
7.04147e-05
4.27079e-05
4.87499e-05
6.50564e-05
6.73042e-05
0.000102687
0.000121683
0.000154845
0.00019462
0.000258208
1.23228e-05
0.000133089
0.000373624
0.000485498
0.000484927
0.000484246
0.000481553
0.000475899
0.000469372
0.000461987
0.000453889
0.000445256
0.000436198
0.000426803
0.000417147
0.000407296
0.000397307
0.00038723
0.000377106
0.000366968
0.000356843
0.00034675
0.000336705
0.000326715
0.000316787
0.000306924
0.000297126
0.000287391
0.000277721
0.000268113
0.00025857
0.000249095
0.000239694
0.000230377
0.000221158
0.000212054
0.000203088
0.000194284
0.00018567
0.000177276
0.00016913
0.000161262
0.000153707
0.000146503
0.000139575
0.000133009
0.000126846