/*--------------------------------*- C++ -*----------------------------------*\
| =========                 |                                                 |
| \\      /  F ield         | OpenFOAM: The Open Source CFD Toolbox           |
|  \\    /   O peration     | Version:  v2106                                 |
|   \\  /    A nd           | Website:  www.openfoam.com                      |
|    \\/     M anipulation  |                                                 |
\*---------------------------------------------------------------------------*/
FoamFile
{
    version     2.0;
    format      ascii;
    arch        "LSB;label=32;scalar=64";
    class       volScalarField;
    location    "1.2";
    object      omega;
}
// * * * * * * * * * * * * * * * * * * * * * * * * * * * * * * * * * * * * * //

dimensions      [0 0 -1 0 0 0 0];

internalField   nonuniform List<scalar> 
29678
(
6.76544
1.42417
0.548856
0.306752
0.217282
0.17838
0.160236
0.151731
0.1479
0.146293
0.145684
0.14549
0.145456
0.145479
0.145523
0.145576
0.145633
0.145692
0.145753
0.145817
0.145882
0.145947
0.146013
0.146078
0.146142
0.146205
0.146266
0.146323
0.146378
0.146429
0.146476
0.146518
0.146555
0.146586
0.146612
0.146632
0.146647
0.146657
0.146663
0.146666
0.146666
0.146665
0.146663
0.146662
0.146663
0.146669
0.14668
0.146699
0.146728
0.146768
0.146819
0.146883
0.146959
0.147048
0.147148
0.147257
0.147375
0.147498
0.147623
0.147747
0.147865
0.147975
0.148071
0.148151
0.148212
0.148258
0.14828
0.148273
0.148235
0.148166
0.148067
0.147938
0.147783
0.147606
0.147414
0.147216
0.14702
0.146835
0.14667
0.146534
0.146441
0.146411
0.146482
0.146631
0.146884
0.147272
0.147824
0.148569
0.149529
0.15073
0.152207
0.153995
0.15608
0.158535
0.161756
0.167847
0.187123
0.274707
0.729635
1.15459
1.1604
1.16093
1.0122
0.821437
0.69985
0.624757
0.534218
0.439278
0.309468
0.202159
6.7655
1.42343
0.548541
0.306616
0.217225
0.178365
0.160247
0.15176
0.147943
0.146348
0.145749
0.145565
0.145541
0.145576
0.145634
0.145701
0.145773
0.145849
0.145927
0.146007
0.146089
0.146171
0.146252
0.146331
0.146408
0.146482
0.146552
0.146617
0.146677
0.146731
0.146778
0.146818
0.146852
0.146879
0.146898
0.146912
0.146919
0.146921
0.146919
0.146915
0.146909
0.146905
0.146902
0.146903
0.146913
0.146932
0.146964
0.147012
0.147076
0.14716
0.147264
0.147389
0.147534
0.1477
0.147885
0.148087
0.148302
0.148525
0.148753
0.14898
0.1492
0.149406
0.149592
0.149753
0.14989
0.150002
0.150073
0.150099
0.150076
0.150003
0.149879
0.149707
0.149489
0.149232
0.148946
0.148641
0.14833
0.148026
0.147743
0.147493
0.147296
0.147174
0.147152
0.147255
0.147515
0.147963
0.148629
0.149543
0.150742
0.152264
0.154146
0.156397
0.159055
0.162289
0.166488
0.174109
0.195144
0.28759
0.695961
1.0629
1.06733
1.06228
0.974206
0.786236
0.676673
0.580951
0.471414
0.3691
0.271369
0.201567
6.76582
1.42241
0.548091
0.306413
0.217133
0.178331
0.160249
0.151786
0.147986
0.146403
0.145815
0.145641
0.14563
0.145679
0.145752
0.145835
0.145922
0.146014
0.146107
0.146203
0.146299
0.146395
0.146489
0.146581
0.146669
0.146753
0.146832
0.146905
0.146971
0.147029
0.147078
0.147119
0.147151
0.147175
0.147191
0.147199
0.1472
0.147196
0.147188
0.147176
0.147164
0.147153
0.147146
0.147145
0.147153
0.147172
0.147206
0.147257
0.147326
0.147416
0.147528
0.147663
0.147821
0.148001
0.148201
0.14842
0.148652
0.148895
0.149143
0.14939
0.14963
0.149856
0.150061
0.150242
0.150405
0.150534
0.15062
0.150659
0.150646
0.150579
0.150459
0.150286
0.150064
0.149797
0.149497
0.149172
0.148838
0.148508
0.148197
0.147923
0.14771
0.147583
0.147572
0.147708
0.148024
0.148552
0.149323
0.150373
0.151737
0.153458
0.155581
0.15816
0.161254
0.16504
0.16998
0.178233
0.200102
0.288939
0.668569
0.978726
0.98298
0.967398
0.889693
0.745375
0.646434
0.564273
0.457674
0.355065
0.261337
0.198963
6.76603
1.42126
0.547584
0.306183
0.217028
0.178292
0.160248
0.15181
0.148027
0.146455
0.145872
0.145705
0.145704
0.145762
0.145842
0.145932
0.146026
0.146122
0.146221
0.146321
0.146421
0.146522
0.14662
0.146716
0.146809
0.146897
0.14698
0.147057
0.147127
0.147189
0.147244
0.147289
0.147326
0.147353
0.147372
0.147383
0.147387
0.147385
0.147379
0.147369
0.147358
0.147347
0.147341
0.147342
0.147351
0.147371
0.147406
0.147458
0.147528
0.147619
0.147732
0.147868
0.148026
0.148207
0.148408
0.148626
0.148859
0.149101
0.149348
0.149594
0.149832
0.150056
0.15026
0.150443
0.150607
0.150734
0.150819
0.150857
0.150846
0.150783
0.150667
0.150501
0.150288
0.150032
0.149743
0.149431
0.149109
0.14879
0.148495
0.148248
0.148073
0.147992
0.14803
0.148216
0.148582
0.149162
0.149991
0.151106
0.152549
0.154369
0.156628
0.159401
0.162784
0.16696
0.172341
0.181142
0.204021
0.29713
0.636926
0.895567
0.899648
0.897865
0.834421
0.681176
0.592979
0.517143
0.42668
0.342145
0.265355
0.207222
6.76605
1.42006
0.547057
0.305945
0.21692
0.178251
0.160248
0.151836
0.148071
0.146498
0.145917
0.145758
0.145762
0.145824
0.145907
0.145998
0.146094
0.146192
0.146292
0.146393
0.146495
0.146596
0.146696
0.146793
0.146887
0.146978
0.147063
0.147142
0.147216
0.147282
0.14734
0.14739
0.147432
0.147466
0.147491
0.147509
0.14752
0.147524
0.147524
0.147521
0.147517
0.147514
0.147514
0.147522
0.147538
0.147565
0.147607
0.147665
0.147743
0.147841
0.147961
0.148105
0.148271
0.148459
0.148667
0.148893
0.149132
0.149381
0.149634
0.149885
0.150127
0.150354
0.150561
0.150752
0.150917
0.151044
0.151129
0.151168
0.151158
0.151097
0.150985
0.150824
0.150618
0.150372
0.150093
0.149792
0.14948
0.149178
0.148911
0.148705
0.148576
0.148537
0.148617
0.148848
0.149263
0.149898
0.150791
0.151983
0.153523
0.155468
0.157891
0.160878
0.164545
0.169123
0.174804
0.184274
0.207773
0.302463
0.60717
0.822988
0.82756
0.831113
0.760881
0.615656
0.537396
0.478326
0.399743
0.327579
0.259492
0.206046
6.76587
1.41884
0.546523
0.305707
0.216815
0.178216
0.160255
0.151875
0.14811
0.146533
0.145959
0.145807
0.145815
0.145879
0.145963
0.146055
0.146151
0.146251
0.146352
0.146454
0.146557
0.14666
0.146762
0.146861
0.146958
0.147051
0.147139
0.147223
0.1473
0.14737
0.147433
0.147489
0.147537
0.147577
0.147609
0.147634
0.147653
0.147666
0.147675
0.147681
0.147686
0.147693
0.147704
0.147721
0.147747
0.147785
0.147838
0.147907
0.147996
0.148106
0.148238
0.148393
0.148571
0.148771
0.148992
0.149229
0.14948
0.149741
0.150005
0.150266
0.150517
0.150753
0.150968
0.151172
0.151342
0.151473
0.151561
0.151601
0.151593
0.151534
0.151426
0.15127
0.151069
0.150829
0.150558
0.150265
0.149966
0.149688
0.14946
0.149298
0.149207
0.149209
0.149335
0.149621
0.150097
0.150802
0.151779
0.153073
0.154738
0.156839
0.159458
0.162695
0.166681
0.171634
0.177487
0.187575
0.211371
0.305433
0.574767
0.757764
0.763468
0.778755
0.702893
0.548597
0.477723
0.431968
0.366751
0.309305
0.251999
0.204636
6.76546
1.41761
0.545989
0.305474
0.216716
0.178193
0.160283
0.151923
0.148139
0.146563
0.146002
0.145858
0.14587
0.145936
0.146021
0.146115
0.146212
0.146313
0.146416
0.14652
0.146625
0.14673
0.146835
0.146937
0.147037
0.147134
0.147227
0.147315
0.147397
0.147473
0.147543
0.147605
0.14766
0.147708
0.147749
0.147782
0.14781
0.147833
0.147852
0.147869
0.147886
0.147905
0.147928
0.147958
0.147998
0.148049
0.148115
0.148199
0.148302
0.148427
0.148574
0.148744
0.148938
0.149153
0.149389
0.149642
0.149908
0.150183
0.150461
0.150735
0.151
0.151248
0.151481
0.151694
0.151873
0.15201
0.152103
0.152148
0.152142
0.152087
0.151981
0.151828
0.151632
0.151398
0.151133
0.150852
0.150573
0.150327
0.150142
0.150021
0.149971
0.150017
0.150197
0.150545
0.151094
0.151885
0.152962
0.154377
0.156188
0.158467
0.161307
0.164816
0.169131
0.174408
0.180403
0.191035
0.214748
0.305929
0.539799
0.699403
0.707187
0.729319
0.643119
0.476622
0.416633
0.384958
0.333098
0.288897
0.241277
0.200525
6.76481
1.41637
0.545458
0.305247
0.216631
0.178199
0.160356
0.151947
0.148144
0.146592
0.14605
0.145916
0.145932
0.146
0.146087
0.146181
0.146281
0.146383
0.146488
0.146595
0.146703
0.146811
0.146918
0.147025
0.147129
0.147231
0.147329
0.147423
0.147511
0.147594
0.147671
0.147742
0.147806
0.147863
0.147913
0.147958
0.147996
0.148031
0.148063
0.148093
0.148124
0.148157
0.148196
0.148241
0.148297
0.148365
0.148449
0.14855
0.148672
0.148815
0.148981
0.149171
0.149383
0.149618
0.149873
0.150145
0.15043
0.150722
0.151017
0.151307
0.151587
0.15185
0.152103
0.152329
0.152519
0.152666
0.152766
0.152817
0.152816
0.152764
0.152661
0.152511
0.152318
0.152089
0.151834
0.151567
0.151314
0.151106
0.150962
0.150883
0.150875
0.150972
0.151212
0.151629
0.152262
0.153151
0.154344
0.155895
0.157869
0.160345
0.163422
0.167218
0.171854
0.177398
0.183509
0.194607
0.217965
0.304381
0.500305
0.647133
0.658183
0.682234
0.591049
0.407719
0.358104
0.337661
0.298926
0.267224
0.229375
0.195582
6.76392
1.41514
0.544933
0.305031
0.216573
0.178296
0.160406
0.151926
0.14814
0.146625
0.146105
0.145981
0.146002
0.146073
0.146161
0.146257
0.146358
0.146463
0.14657
0.14668
0.146791
0.146903
0.147015
0.147126
0.147235
0.147342
0.147447
0.147547
0.147643
0.147735
0.14782
0.147901
0.147975
0.148043
0.148105
0.148162
0.148214
0.148263
0.14831
0.148356
0.148404
0.148455
0.148512
0.148577
0.148652
0.148742
0.148847
0.14897
0.149114
0.149281
0.149471
0.149685
0.149922
0.150181
0.15046
0.150756
0.151063
0.151378
0.151693
0.152003
0.152301
0.152586
0.152858
0.153099
0.153301
0.15346
0.15357
0.153628
0.153634
0.153586
0.153486
0.153339
0.15315
0.152926
0.152681
0.152432
0.152208
0.152037
0.151932
0.151894
0.151934
0.152087
0.152391
0.152886
0.153611
0.154609
0.155929
0.157629
0.159778
0.162463
0.16579
0.169878
0.174807
0.18053
0.186787
0.198311
0.221013
0.301491
0.461197
0.601903
0.618691
0.63858
0.545981
0.346222
0.307395
0.29399
0.267044
0.245053
0.216542
0.189892
6.76279
1.4139
0.544414
0.304834
0.216587
0.178449
0.160406
0.151862
0.148132
0.146664
0.146169
0.146056
0.146081
0.146154
0.146245
0.146343
0.146446
0.146554
0.146664
0.146777
0.146891
0.147007
0.147124
0.14724
0.147356
0.14747
0.147581
0.14769
0.147795
0.147895
0.147992
0.148083
0.148169
0.148251
0.148327
0.148399
0.148467
0.148533
0.148598
0.148663
0.148731
0.148803
0.148883
0.148971
0.149071
0.149186
0.149317
0.149468
0.149641
0.149836
0.150055
0.150299
0.150567
0.150857
0.151166
0.151492
0.151829
0.152171
0.152512
0.152847
0.153167
0.15348
0.153773
0.154032
0.154249
0.15442
0.154541
0.154608
0.154621
0.154579
0.154484
0.15434
0.154155
0.153937
0.153702
0.153472
0.153276
0.153139
0.15307
0.153073
0.153164
0.153377
0.153751
0.154329
0.155152
0.156265
0.157718
0.159573
0.161906
0.164808
0.16839
0.172768
0.177939
0.183751
0.190207
0.202131
0.22399
0.298109
0.429012
0.565751
0.5912
0.601771
0.51113
0.302903
0.268881
0.258884
0.24047
0.225239
0.204195
0.183853
6.76141
1.41268
0.543906
0.304681
0.216843
0.178512
0.160283
0.151778
0.148127
0.14671
0.146241
0.14614
0.14617
0.146246
0.146339
0.146439
0.146545
0.146655
0.146769
0.146886
0.147005
0.147126
0.147248
0.14737
0.147492
0.147614
0.147734
0.147852
0.147967
0.148079
0.148187
0.148292
0.148392
0.148489
0.148582
0.148671
0.148759
0.148845
0.148931
0.149019
0.149111
0.149209
0.149315
0.149432
0.149562
0.149707
0.149871
0.150056
0.150263
0.150494
0.150751
0.151032
0.151337
0.151666
0.152013
0.152376
0.152749
0.153127
0.153501
0.153867
0.154217
0.154563
0.15488
0.155161
0.155397
0.155583
0.155716
0.155792
0.155812
0.155777
0.155688
0.155549
0.155367
0.155156
0.154931
0.154719
0.154546
0.154437
0.1544
0.154444
0.154587
0.154861
0.155309
0.155972
0.156894
0.158123
0.159712
0.161725
0.164242
0.167363
0.171196
0.175848
0.181169
0.187061
0.193729
0.206058
0.227028
0.294928
0.4077
0.541773
0.577092
0.569167
0.484656
0.275051
0.241228
0.232543
0.21958
0.208792
0.193129
0.177388
6.75978
1.41145
0.543413
0.30459
0.217189
0.178526
0.160101
0.151685
0.148127
0.146766
0.146324
0.146234
0.14627
0.146348
0.146444
0.146547
0.146655
0.146769
0.146886
0.147007
0.147132
0.147258
0.147386
0.147516
0.147646
0.147776
0.147906
0.148035
0.148162
0.148287
0.148409
0.148529
0.148646
0.148761
0.148873
0.148984
0.149093
0.149204
0.149315
0.149431
0.149552
0.14968
0.149818
0.149969
0.150135
0.150319
0.150522
0.150748
0.150998
0.151273
0.151575
0.151903
0.152256
0.152631
0.153026
0.153436
0.153855
0.154277
0.154693
0.155097
0.155492
0.155873
0.156221
0.156528
0.156786
0.156991
0.157138
0.157224
0.157251
0.15722
0.157136
0.157003
0.156828
0.156623
0.156408
0.156209
0.156054
0.155966
0.155956
0.156036
0.156228
0.156564
0.157084
0.15783
0.15885
0.160191
0.161911
0.164078
0.166776
0.17011
0.17418
0.179054
0.184374
0.19043
0.197311
0.210097
0.230255
0.292989
0.399715
0.528205
0.574937
0.540076
0.464938
0.25813
0.222403
0.213118
0.203053
0.195129
0.184235
0.171585
6.75791
1.41023
0.54295
0.304697
0.217462
0.178446
0.159898
0.151595
0.148137
0.146832
0.146417
0.146338
0.146379
0.146461
0.146559
0.146665
0.146778
0.146895
0.147017
0.147143
0.147273
0.147406
0.147541
0.147679
0.147818
0.147959
0.1481
0.148241
0.148381
0.148521
0.14866
0.148798
0.148934
0.14907
0.149205
0.14934
0.149476
0.149614
0.149756
0.149904
0.150059
0.150225
0.150402
0.150594
0.150804
0.151033
0.151285
0.151561
0.151864
0.152194
0.152552
0.152938
0.153349
0.153784
0.154239
0.154707
0.155184
0.15566
0.156128
0.156582
0.157031
0.157457
0.157844
0.158184
0.15847
0.158697
0.158861
0.158959
0.158992
0.158964
0.158881
0.158751
0.158581
0.158384
0.158177
0.157988
0.157844
0.157768
0.157778
0.157888
0.158122
0.158514
0.159101
0.159925
0.161034
0.162479
0.16432
0.16663
0.169498
0.173029
0.177303
0.182311
0.187555
0.193833
0.20092
0.214237
0.233772
0.292758
0.401713
0.522372
0.582649
0.516013
0.452887
0.248597
0.210701
0.199198
0.19047
0.183819
0.176077
0.167289
6.75579
1.40903
0.54255
0.30521
0.217533
0.17817
0.159678
0.151513
0.148158
0.14691
0.14652
0.146454
0.1465
0.146586
0.146687
0.146796
0.146912
0.147034
0.147161
0.147293
0.147429
0.14757
0.147713
0.147861
0.14801
0.148162
0.148316
0.148471
0.148627
0.148785
0.148942
0.149101
0.14926
0.149419
0.149581
0.149745
0.149912
0.150084
0.150262
0.150448
0.150644
0.150853
0.151077
0.15132
0.151582
0.151867
0.152178
0.152516
0.152884
0.153281
0.153709
0.154167
0.154652
0.155161
0.15569
0.156231
0.15678
0.157325
0.157859
0.158376
0.158893
0.159374
0.15981
0.160191
0.16051
0.160763
0.160948
0.161062
0.161103
0.161076
0.160989
0.160855
0.160684
0.16049
0.16029
0.160106
0.159967
0.159897
0.159916
0.160045
0.160311
0.160748
0.16139
0.162279
0.163464
0.165
0.166947
0.169382
0.1724
0.176099
0.180503
0.185487
0.190703
0.197239
0.204528
0.21847
0.23769
0.294211
0.410781
0.519868
0.596867
0.497858
0.449775
0.244234
0.204393
0.191192
0.183022
0.176751
0.170769
0.164806
6.75342
1.40783
0.542203
0.305854
0.217535
0.177819
0.159453
0.151443
0.148192
0.146999
0.146636
0.14658
0.146632
0.146722
0.146826
0.14694
0.14706
0.147187
0.147319
0.147458
0.147602
0.14775
0.147904
0.148062
0.148223
0.148388
0.148557
0.148728
0.148903
0.149079
0.149259
0.149441
0.149626
0.149814
0.150007
0.150204
0.150408
0.150619
0.150839
0.151071
0.151316
0.151578
0.151858
0.152161
0.152487
0.152841
0.153224
0.153638
0.154085
0.154566
0.155081
0.155627
0.156204
0.156806
0.157427
0.158062
0.1587
0.159332
0.159948
0.160555
0.161138
0.161672
0.162149
0.162563
0.162912
0.163193
0.163404
0.163544
0.163613
0.16361
0.163538
0.163396
0.163213
0.16301
0.162807
0.162624
0.162483
0.162411
0.16243
0.162565
0.162847
0.16331
0.16399
0.164926
0.166169
0.167773
0.169803
0.172339
0.175476
0.179295
0.183699
0.188602
0.193812
0.200618
0.208119
0.222777
0.242057
0.296995
0.425078
0.513978
0.611319
0.486086
0.454835
0.243304
0.202019
0.187522
0.179248
0.172659
0.167179
0.163155
6.75081
1.40665
0.541896
0.306524
0.217513
0.177444
0.159234
0.151387
0.14824
0.147102
0.146763
0.146719
0.146776
0.14687
0.146978
0.147096
0.147221
0.147354
0.147493
0.147639
0.147791
0.14795
0.148114
0.148284
0.148459
0.148639
0.148824
0.149014
0.149209
0.149408
0.149613
0.149822
0.150037
0.150259
0.150487
0.150724
0.15097
0.151227
0.151498
0.151784
0.152088
0.152412
0.15276
0.153135
0.15354
0.153976
0.154448
0.154955
0.155501
0.156085
0.156707
0.157366
0.158056
0.158775
0.159513
0.160263
0.161014
0.161749
0.162445
0.163125
0.163765
0.164349
0.16487
0.165325
0.165709
0.16602
0.166259
0.166425
0.16652
0.166546
0.166509
0.166413
0.166257
0.166035
0.165811
0.165611
0.165461
0.16538
0.165389
0.165516
0.165793
0.166257
0.166949
0.167908
0.169181
0.170826
0.172909
0.175512
0.178724
0.182568
0.186804
0.191669
0.19688
0.203943
0.211674
0.227033
0.246673
0.300744
0.441038
0.49224
0.608894
0.475119
0.465938
0.245563
0.203342
0.18699
0.177959
0.170528
0.164763
0.161968
6.74795
1.40548
0.541634
0.307172
0.217475
0.177068
0.159026
0.151348
0.148303
0.147218
0.146903
0.146869
0.146933
0.14703
0.147143
0.147266
0.147397
0.147536
0.147683
0.147837
0.147999
0.148168
0.148344
0.148528
0.148718
0.148915
0.14912
0.149331
0.149549
0.149775
0.150008
0.150249
0.150499
0.150758
0.151028
0.151311
0.151607
0.151919
0.152248
0.152599
0.152972
0.153372
0.153802
0.154265
0.154764
0.155302
0.155881
0.156504
0.157171
0.157884
0.15864
0.159437
0.160271
0.161135
0.162019
0.162905
0.163761
0.164573
0.165342
0.166105
0.166815
0.167463
0.16804
0.168544
0.16897
0.169317
0.169585
0.169777
0.169894
0.169942
0.169928
0.169862
0.169756
0.169618
0.169405
0.169169
0.168986
0.168877
0.168863
0.168968
0.169221
0.169662
0.170334
0.17128
0.172548
0.174196
0.176293
0.178918
0.182124
0.185812
0.189865
0.1947
0.199906
0.207205
0.215187
0.231113
0.251375
0.304858
0.451582
0.478887
0.604279
0.488648
0.482982
0.252216
0.207714
0.189118
0.178606
0.1698
0.163383
0.160465
6.74484
1.40432
0.541614
0.307656
0.21734
0.176697
0.158836
0.151326
0.148382
0.147347
0.147055
0.147032
0.147101
0.147204
0.147322
0.147451
0.147588
0.147734
0.147889
0.148053
0.148226
0.148407
0.148597
0.148796
0.149003
0.14922
0.149446
0.149681
0.149926
0.150181
0.150447
0.150724
0.151014
0.151318
0.151637
0.151973
0.152327
0.152703
0.153103
0.15353
0.153986
0.154477
0.155004
0.155573
0.156187
0.156849
0.157561
0.158326
0.159144
0.160016
0.16094
0.161911
0.162923
0.16396
0.164981
0.165973
0.166926
0.16783
0.168707
0.169564
0.170363
0.171091
0.17174
0.172306
0.172785
0.173175
0.173477
0.173693
0.173829
0.17389
0.173886
0.17383
0.173738
0.173627
0.173517
0.173396
0.173168
0.173003
0.172938
0.172997
0.173207
0.173601
0.174221
0.175115
0.176333
0.177936
0.179994
0.182568
0.18562
0.189047
0.192932
0.197725
0.202908
0.21041
0.218655
0.234999
0.256342
0.30938
0.4506
0.503519
0.611289
0.529473
0.501938
0.264049
0.213883
0.193598
0.180497
0.170244
0.162784
0.158919
6.74149
1.40322
0.542126
0.307806
0.216987
0.176328
0.158665
0.151323
0.148477
0.14749
0.14722
0.147208
0.147283
0.147391
0.147515
0.14765
0.147794
0.147949
0.148113
0.148288
0.148472
0.148667
0.148872
0.149089
0.149316
0.149554
0.149804
0.150067
0.150342
0.150631
0.150935
0.151254
0.15159
0.151945
0.15232
0.152718
0.153141
0.153592
0.154075
0.154592
0.155148
0.155746
0.156392
0.15709
0.157844
0.158657
0.159532
0.160472
0.161478
0.162548
0.163679
0.16486
0.166046
0.167221
0.168372
0.169491
0.170564
0.171585
0.1726
0.173582
0.174495
0.175328
0.176071
0.176717
0.177264
0.177708
0.17805
0.178293
0.178444
0.17851
0.178503
0.178439
0.178333
0.178208
0.178093
0.178014
0.177979
0.177853
0.17772
0.177699
0.177832
0.178148
0.178687
0.179494
0.180613
0.18211
0.184048
0.186431
0.18917
0.192347
0.196056
0.200775
0.20591
0.213571
0.222054
0.238801
0.261684
0.314424
0.434692
0.537543
0.610929
0.585057
0.514065
0.279051
0.220854
0.199514
0.183222
0.171569
0.162834
0.15765
6.73788
1.40218
0.542879
0.307789
0.216521
0.175963
0.158517
0.151339
0.148587
0.147647
0.147398
0.147396
0.147478
0.147592
0.147722
0.147864
0.148016
0.14818
0.148355
0.148541
0.148739
0.14895
0.149172
0.149408
0.149657
0.14992
0.150198
0.150491
0.150801
0.151128
0.151475
0.151842
0.152231
0.152645
0.153085
0.153555
0.154059
0.154598
0.155178
0.155803
0.156478
0.157206
0.157994
0.158847
0.159772
0.160771
0.161847
0.163004
0.164241
0.165552
0.166895
0.168245
0.169594
0.17093
0.172243
0.173518
0.174744
0.175917
0.177112
0.178255
0.179318
0.180287
0.181153
0.181906
0.182541
0.183054
0.183446
0.183721
0.183885
0.183948
0.183924
0.183831
0.183687
0.183517
0.183357
0.183233
0.183168
0.183169
0.183142
0.183133
0.183181
0.183381
0.183799
0.184478
0.185453
0.186766
0.188425
0.190444
0.192865
0.195787
0.199296
0.2039
0.208956
0.216717
0.225398
0.24265
0.266597
0.319116
0.414199
0.549189
0.599751
0.632296
0.52252
0.294356
0.22901
0.206151
0.186904
0.173695
0.163502
0.156919
6.73402
1.40118
0.543733
0.307684
0.216002
0.175611
0.15839
0.151374
0.148713
0.147818
0.14759
0.147598
0.147687
0.147807
0.147944
0.148093
0.148255
0.148429
0.148616
0.148815
0.149028
0.149256
0.149498
0.149755
0.150029
0.150319
0.150628
0.150956
0.151305
0.151676
0.152071
0.152493
0.152943
0.153425
0.153941
0.154496
0.155092
0.155736
0.156432
0.157184
0.158
0.158884
0.159844
0.160886
0.162018
0.163245
0.164568
0.165987
0.167471
0.168982
0.170514
0.172058
0.173605
0.175142
0.176654
0.178126
0.179542
0.18093
0.182345
0.183695
0.184952
0.186101
0.187128
0.188021
0.188772
0.189377
0.189834
0.190147
0.190324
0.190377
0.19032
0.190175
0.189963
0.189719
0.189475
0.189257
0.189094
0.189017
0.189012
0.189008
0.189055
0.18921
0.189517
0.190024
0.190768
0.191762
0.193051
0.19471
0.196811
0.19945
0.202721
0.207167
0.212115
0.219954
0.228793
0.246674
0.27151
0.32449
0.423243
0.570844
0.57614
0.673005
0.534847
0.30819
0.238541
0.213017
0.191616
0.176575
0.164853
0.156828
6.72992
1.40022
0.54462
0.307528
0.21546
0.175276
0.158287
0.151429
0.148855
0.148002
0.147794
0.147812
0.147909
0.148036
0.148181
0.148339
0.148511
0.148696
0.148895
0.14911
0.14934
0.149586
0.149849
0.150131
0.150432
0.150754
0.151097
0.151465
0.151858
0.152278
0.152729
0.153213
0.153733
0.154293
0.154897
0.155549
0.156255
0.157021
0.157853
0.158757
0.159741
0.160813
0.16198
0.163251
0.164635
0.166136
0.167734
0.169381
0.171071
0.1728
0.174561
0.176343
0.178133
0.179917
0.181675
0.18339
0.185045
0.186721
0.188412
0.190027
0.191537
0.19292
0.194157
0.195234
0.196139
0.196865
0.197408
0.197771
0.197963
0.197997
0.197891
0.197667
0.197353
0.196999
0.196625
0.196261
0.19594
0.195695
0.195557
0.195475
0.195417
0.195436
0.195572
0.195872
0.196381
0.197106
0.198069
0.199369
0.201118
0.203433
0.206425
0.210664
0.215487
0.223409
0.232348
0.251131
0.276953
0.332058
0.449516
0.588862
0.57319
0.712055
0.557407
0.320353
0.249489
0.220213
0.19726
0.180173
0.166919
0.157362
6.72556
1.39928
0.545508
0.307344
0.214915
0.174961
0.158206
0.151502
0.149012
0.1482
0.148011
0.14804
0.148144
0.148279
0.148432
0.1486
0.148783
0.148981
0.149195
0.149426
0.149674
0.149941
0.150229
0.150537
0.150869
0.151225
0.151608
0.152019
0.152462
0.152939
0.153453
0.154007
0.154607
0.155257
0.155962
0.156728
0.157562
0.158471
0.159463
0.160547
0.161732
0.163029
0.164447
0.165992
0.167665
0.169416
0.171231
0.173109
0.175046
0.177039
0.179077
0.181148
0.183236
0.185321
0.187382
0.189395
0.19135
0.193397
0.195441
0.197396
0.199229
0.200915
0.202427
0.203746
0.204855
0.205742
0.206401
0.206833
0.207047
0.207056
0.206883
0.20655
0.206107
0.205592
0.205029
0.204457
0.203911
0.203427
0.203038
0.202763
0.20252
0.202326
0.202226
0.202265
0.202494
0.202945
0.203607
0.204541
0.205904
0.207843
0.210512
0.214493
0.219197
0.2272
0.236263
0.256167
0.283093
0.342367
0.483293
0.58671
0.602589
0.745338
0.591315
0.330862
0.262408
0.227859
0.203666
0.184546
0.169672
0.158639
6.72095
1.39837
0.546379
0.307142
0.214376
0.17467
0.158148
0.151594
0.149184
0.14841
0.14824
0.14828
0.148393
0.148537
0.148699
0.148878
0.149073
0.149284
0.149514
0.149763
0.150032
0.150322
0.150636
0.150975
0.15134
0.151735
0.152161
0.152622
0.153121
0.15366
0.154246
0.154881
0.155573
0.156326
0.157147
0.158045
0.159027
0.160104
0.161285
0.162583
0.164008
0.165573
0.167283
0.169098
0.170991
0.172972
0.175041
0.177194
0.179428
0.181738
0.184111
0.186532
0.18898
0.191431
0.193858
0.196236
0.198578
0.201093
0.203581
0.205968
0.208217
0.210292
0.212161
0.213796
0.215174
0.216277
0.217094
0.217624
0.217873
0.217857
0.217599
0.217129
0.216521
0.21579
0.214977
0.214124
0.213273
0.212465
0.211736
0.211119
0.210598
0.210109
0.209701
0.209415
0.209295
0.209409
0.209767
0.21034
0.211287
0.2128
0.215097
0.218762
0.223394
0.231432
0.240876
0.261866
0.290565
0.356836
0.520523
0.574011
0.617169
0.775437
0.626876
0.342038
0.276566
0.236145
0.210589
0.189454
0.173024
0.160585
6.71608
1.39749
0.547222
0.30693
0.21385
0.174404
0.158114
0.151703
0.14937
0.148634
0.148482
0.148533
0.148655
0.148808
0.148981
0.149171
0.149379
0.149606
0.149853
0.150122
0.150413
0.150729
0.151072
0.151444
0.151847
0.152285
0.15276
0.153275
0.153836
0.154447
0.155113
0.155841
0.156636
0.157507
0.158463
0.159513
0.160669
0.161942
0.163346
0.164895
0.166601
0.168449
0.17039
0.172427
0.174566
0.176817
0.179186
0.181667
0.184257
0.186947
0.189722
0.192563
0.195443
0.198334
0.201206
0.204029
0.206903
0.20998
0.213024
0.215958
0.218735
0.221309
0.223637
0.225682
0.227411
0.228799
0.229828
0.230494
0.230801
0.230764
0.230406
0.22979
0.228969
0.227966
0.226831
0.225611
0.224359
0.223123
0.221946
0.220868
0.219919
0.219027
0.218208
0.217512
0.216977
0.216664
0.216651
0.216878
0.217382
0.21843
0.220302
0.223601
0.228232
0.236226
0.246406
0.268478
0.300077
0.376044
0.56418
0.591326
0.64167
0.819547
0.652571
0.359573
0.290607
0.245931
0.217757
0.194585
0.176577
0.162807
6.71096
1.39662
0.548031
0.306714
0.213344
0.174164
0.158101
0.15183
0.14957
0.148869
0.148736
0.148798
0.14893
0.149093
0.149276
0.149479
0.149702
0.149946
0.150212
0.150502
0.150818
0.151163
0.151538
0.151946
0.152391
0.152875
0.153404
0.153981
0.154612
0.155303
0.15606
0.156891
0.157804
0.15881
0.15992
0.161146
0.162503
0.164006
0.16567
0.167502
0.169453
0.171511
0.173683
0.17598
0.178408
0.180976
0.183698
0.18657
0.189583
0.192725
0.19598
0.199322
0.20272
0.206142
0.209553
0.212928
0.216498
0.220274
0.22402
0.227648
0.231095
0.234305
0.23722
0.239788
0.241967
0.243721
0.245026
0.245873
0.246264
0.246213
0.24575
0.244977
0.2439
0.242564
0.241026
0.239344
0.237578
0.235788
0.234033
0.232363
0.23082
0.229374
0.228005
0.226772
0.225727
0.224901
0.224401
0.224238
0.224315
0.22485
0.226247
0.229147
0.233827
0.24176
0.252988
0.276306
0.312139
0.39987
0.606351
0.646388
0.67834
0.869506
0.665457
0.379776
0.304144
0.256617
0.224973
0.199758
0.180086
0.164971
6.70559
1.39576
0.548799
0.306499
0.212861
0.17395
0.158111
0.151973
0.149783
0.149116
0.149
0.149074
0.149216
0.14939
0.149586
0.149803
0.150042
0.150303
0.15059
0.150904
0.151247
0.151622
0.152032
0.15248
0.152971
0.153507
0.154096
0.154741
0.15545
0.156229
0.157088
0.158036
0.159084
0.160244
0.16153
0.162959
0.164549
0.166314
0.168239
0.170278
0.17244
0.174735
0.177177
0.179776
0.182543
0.185486
0.188621
0.191953
0.195467
0.199146
0.202972
0.206912
0.210934
0.215001
0.219076
0.223147
0.22761
0.232273
0.236908
0.241417
0.245719
0.249739
0.253399
0.256633
0.259379
0.261592
0.263241
0.264311
0.264806
0.26474
0.264192
0.263227
0.26185
0.260119
0.258094
0.255843
0.25344
0.250957
0.248467
0.246035
0.243719
0.241524
0.239422
0.237481
0.235762
0.234315
0.233192
0.232513
0.232189
0.232158
0.233044
0.235542
0.240218
0.248236
0.260745
0.285661
0.327124
0.428145
0.647183
0.736403
0.719747
0.92204
0.681834
0.400639
0.318689
0.267651
0.232191
0.204755
0.18339
0.166958
6.69996
1.39493
0.549521
0.306287
0.212403
0.173763
0.15814
0.152131
0.150008
0.149374
0.149275
0.149361
0.149514
0.1497
0.149909
0.150141
0.150397
0.150678
0.150987
0.151326
0.151699
0.152107
0.152555
0.153047
0.153587
0.154181
0.154835
0.155555
0.15635
0.157229
0.158202
0.159282
0.160481
0.161816
0.163304
0.164965
0.166813
0.168801
0.170914
0.173165
0.175568
0.178138
0.18089
0.18384
0.187003
0.190388
0.194006
0.197879
0.201985
0.206303
0.210807
0.215467
0.220244
0.225104
0.230007
0.234983
0.240585
0.24638
0.252153
0.257793
0.263196
0.268257
0.272872
0.276948
0.280403
0.283178
0.285234
0.286555
0.287151
0.287044
0.286403
0.285196
0.283463
0.281262
0.278658
0.275725
0.272548
0.269216
0.265813
0.262425
0.259124
0.255939
0.252865
0.249985
0.247374
0.245109
0.243241
0.241861
0.241045
0.240496
0.240802
0.24287
0.247418
0.255778
0.269784
0.296801
0.345542
0.460826
0.6857
0.879944
0.840664
0.994639
0.705904
0.421993
0.333946
0.278303
0.239167
0.209417
0.186399
0.168762
6.69408
1.3943
0.550055
0.306021
0.211973
0.173601
0.15819
0.152303
0.150243
0.149641
0.14956
0.149658
0.149823
0.150021
0.150244
0.150492
0.150766
0.151068
0.151401
0.151768
0.152172
0.152617
0.153106
0.153645
0.15424
0.154896
0.155622
0.156425
0.157316
0.158305
0.159405
0.160632
0.162001
0.163534
0.16525
0.167152
0.169186
0.171357
0.17368
0.176172
0.178851
0.181736
0.184847
0.188205
0.191827
0.19573
0.199921
0.204421
0.209228
0.214304
0.219622
0.225151
0.230856
0.236702
0.242656
0.248857
0.2559
0.263149
0.270402
0.277521
0.284363
0.290784
0.296636
0.301789
0.306132
0.309583
0.312098
0.313667
0.314309
0.314145
0.313301
0.311749
0.309546
0.306754
0.303444
0.299698
0.295637
0.291277
0.286751
0.282171
0.27764
0.273167
0.268821
0.26471
0.260932
0.257578
0.254748
0.25247
0.251011
0.249889
0.249592
0.251161
0.255474
0.264371
0.280022
0.309825
0.367774
0.496756
0.74891
1.09472
1.0104
1.12483
0.724552
0.446353
0.349089
0.288277
0.245177
0.213113
0.188714
0.170251
6.68793
1.39398
0.550324
0.30567
0.21157
0.173465
0.158257
0.152487
0.150488
0.149916
0.149852
0.149963
0.15014
0.150351
0.15059
0.150855
0.151149
0.151473
0.151832
0.152229
0.152666
0.15315
0.153684
0.154274
0.154928
0.155652
0.156456
0.15735
0.158345
0.159456
0.160698
0.162088
0.163649
0.165402
0.167333
0.169398
0.17161
0.173987
0.176547
0.179312
0.182305
0.185551
0.189074
0.192903
0.197061
0.201569
0.206438
0.211673
0.217302
0.223282
0.229581
0.236173
0.243032
0.250126
0.257435
0.265352
0.274197
0.283347
0.292562
0.301656
0.310431
0.318674
0.326163
0.332706
0.33815
0.3424
0.345412
0.347173
0.347736
0.347428
0.346199
0.344101
0.341211
0.337607
0.333465
0.328714
0.323484
0.317881
0.312018
0.306012
0.299939
0.293838
0.287868
0.282171
0.276879
0.272107
0.267989
0.264592
0.262191
0.260304
0.259511