/*--------------------------------*- C++ -*----------------------------------*\
| =========                 |                                                 |
| \\      /  F ield         | OpenFOAM: The Open Source CFD Toolbox           |
|  \\    /   O peration     | Version:  v2106                                 |
|   \\  /    A nd           | Website:  www.openfoam.com                      |
|    \\/     M anipulation  |                                                 |
\*---------------------------------------------------------------------------*/
FoamFile
{
    version     2.0;
    format      ascii;
    arch        "LSB;label=32;scalar=64";
    class       volScalarField;
    location    "1.2";
    object      p;
}
// * * * * * * * * * * * * * * * * * * * * * * * * * * * * * * * * * * * * * //

dimensions      [1 -1 -2 0 0 0 0];

internalField   nonuniform List<scalar> 
29678
(
14642.3
14495.1
14348
14200.8
14053.7
13906.6
13759.4
13612.3
13465.1
13318
13170.8
13023.6
12876.5
12729.3
12582.2
12435
12287.9
12140.7
11993.6
11846.4
11699.3
11552.1
11404.9
11257.8
11110.6
10963.4
10816.3
10669.1
10521.9
10374.8
10227.6
10080.4
9933.23
9786.05
9638.86
9491.67
9344.48
9197.29
9050.09
8902.89
8755.69
8608.48
8461.28
8314.07
8166.86
8019.64
7872.42
7725.21
7577.99
7430.76
7283.54
7136.31
6989.08
6841.85
6694.63
6547.4
6400.17
6252.94
6105.71
5958.48
5811.25
5664.02
5516.79
5369.56
5222.34
5075.11
4927.89
4780.67
4633.44
4486.22
4339
4191.78
4044.55
3897.33
3750.11
3602.88
3455.65
3308.41
3161.17
3013.92
2866.66
2719.39
2571.88
2424.23
2276.32
2128.11
1979.59
1830.81
1681.8
1532.57
1383.11
1233.31
1083.67
933.079
783.044
630.975
484.315
333.838
197.139
67.4028
-0.126882
-0.298461
-0.492977
-0.666571
-0.856993
-1.03577
-1.21969
-1.39961
-1.58087
-1.76277
14644
14496.9
14349.7
14202.6
14055.4
13908.3
13761.1
13614
13466.8
13319.7
13172.5
13025.3
12878.2
12731
12583.9
12436.7
12289.6
12142.4
11995.2
11848.1
11700.9
11553.7
11406.5
11259.4
11112.2
10965
10817.8
10670.6
10523.4
10376.2
10228.9
10081.7
9934.47
9787.22
9639.97
9492.7
9345.43
9198.16
9050.87
8903.57
8756.27
8608.96
8461.64
8314.31
8166.96
8019.62
7872.27
7724.91
7577.54
7430.17
7282.79
7135.41
6988.02
6840.64
6693.24
6545.85
6398.46
6251.07
6103.67
5956.28
5808.89
5661.5
5514.12
5366.74
5219.36
5071.98
4924.61
4777.23
4629.87
4482.5
4335.13
4187.76
4040.4
3893.03
3745.65
3598.27
3450.87
3303.46
3156.03
3008.56
2861.04
2713.41
2565.76
2417.91
2269.82
2121.49
1972.91
1824.1
1675.07
1525.84
1376.41
1226.79
1077.14
927.179
777.624
626.965
480.448
329.258
191.093
61.5335
-0.130468
-0.300003
-0.491453
-0.66418
-0.850726
-1.02993
-1.21304
-1.39436
-1.57667
-1.75965
14645.7
14498.6
14351.4
14204.3
14057.1
13910
13762.8
13615.7
13468.5
13321.4
13174.2
13027.1
12879.9
12732.7
12585.6
12438.4
12291.3
12144.1
11996.9
11849.7
11702.6
11555.4
11408.2
11261
11113.7
10966.5
10819.3
10672.1
10524.8
10377.6
10230.3
10083
9935.71
9788.4
9641.08
9493.74
9346.39
9199.03
9051.65
8904.26
8756.85
8609.43
8461.99
8314.54
8167.07
8019.59
7872.11
7724.61
7577.09
7429.57
7282.04
7134.5
6986.96
6839.41
6691.86
6544.3
6396.74
6249.18
6101.63
5954.07
5806.52
5658.97
5511.43
5363.89
5216.36
5068.83
4921.31
4773.79
4626.27
4478.76
4331.25
4183.74
4036.23
3888.72
3741.19
3593.66
3446.11
3298.54
3150.93
3003.28
2855.56
2707.77
2559.87
2411.81
2263.57
2115.12
1966.46
1817.59
1668.53
1519.3
1369.89
1220.35
1070.76
921.007
771.652
621.733
474.617
325.12
182.542
55.715
-0.109252
-0.289306
-0.472641
-0.654456
-0.83943
-1.02255
-1.20653
-1.39001
-1.57378
-1.75786
14647.5
14500.3
14353.2
14206
14058.8
13911.7
13764.5
13617.4
13470.2
13323.1
13175.9
13028.8
12881.6
12734.5
12587.3
12440.1
12293
12145.8
11998.6
11851.4
11704.2
11557
11409.8
11262.6
11115.3
10968.1
10820.8
10673.5
10526.3
10379
10231.6
10084.3
9936.95
9789.58
9642.2
9494.79
9347.36
9199.91
9052.45
8904.96
8757.45
8609.91
8462.36
8314.78
8167.19
8019.58
7871.96
7724.31
7576.66
7428.98
7281.3
7133.6
6985.9
6838.18
6690.46
6542.74
6395.02
6247.29
6099.57
5951.85
5804.14
5656.43
5508.73
5361.03
5213.34
5065.66
4917.99
4770.32
4622.67
4475.01
4327.36
4179.71
4032.06
3884.4
3736.74
3589.06
3441.36
3293.63
3145.87
2998.05
2850.16
2702.19
2554.11
2405.89
2257.51
2108.95
1960.21
1811.28
1662.18
1512.91
1363.51
1213.99
1064.41
914.759
765.395
615.843
467.935
318.644
173.522
49.8861
-0.0967327
-0.281577
-0.464997
-0.648238
-0.833073
-1.01714
-1.20166
-1.38607
-1.57066
-1.75545
14649.2
14502
14354.9
14207.7
14060.6
13913.4
13766.3
13619.1
13471.9
13324.8
13177.6
13030.5
12883.3
12736.2
12589
12441.8
12294.7
12147.5
12000.3
11853.1
11705.9
11558.7
11411.4
11264.2
11116.9
10969.6
10822.4
10675
10527.7
10380.4
10233
10085.6
9938.22
9790.79
9643.34
9495.86
9348.35
9200.82
9053.27
8905.68
8758.06
8610.42
8462.75
8315.05
8167.33
8019.59
7871.82
7724.04
7576.23
7428.4
7280.56
7132.7
6984.83
6836.96
6689.07
6541.18
6393.29
6245.39
6097.5
5949.62
5801.74
5653.87
5506
5358.15
5210.31
5062.48
4914.65
4766.84
4619.04
4471.24
4323.45
4175.67
4027.88
3880.09
3732.29
3584.47
3436.63
3288.76
3140.85
2992.88
2844.84
2696.71
2548.48
2400.12
2251.62
2102.96
1954.13
1805.13
1655.97
1506.66
1357.22
1207.66
1058.04
908.363
758.818
609.27
460.535
310.839
163.865
44.2081
-0.0854004
-0.273197
-0.456636
-0.641538
-0.826946
-1.0121
-1.19742
-1.38269
-1.56804
-1.75348
14650.9
14503.8
14356.6
14209.4
14062.3
13915.1
13768
13620.8
13473.7
13326.5
13179.4
13032.2
12885.1
12737.9
12590.7
12443.5
12296.4
12149.2
12002
11854.8
11707.5
11560.3
11413.1
11265.8
11118.5
10971.2
10823.9
10676.6
10529.2
10381.8
10234.4
10087
9939.51
9792.02
9644.51
9496.96
9349.38
9201.76
9054.11
8906.43
8758.71
8610.96
8463.17
8315.35
8167.5
8019.62
7871.71
7723.78
7575.82
7427.84
7279.83
7131.81
6983.78
6835.73
6687.67
6539.61
6391.55
6243.48
6095.42
5947.37
5799.32
5651.29
5503.26
5355.25
5207.25
5059.26
4911.29
4763.34
4615.39
4467.46
4319.53
4171.61
4023.69
3875.77
3727.84
3579.89
3431.92
3283.92
3135.87
2987.77
2839.59
2691.34
2542.98
2394.5
2245.88
2097.12
1948.21
1799.14
1649.92
1500.54
1351.03
1201.4
1051.68
901.904
752.081
602.371
452.654
302.908
154.096
38.7443
-0.0745375
-0.265445
-0.449445
-0.635502
-0.821686
-1.00766
-1.19369
-1.37967
-1.56569
-1.75173
14652.6
14505.5
14358.3
14211.2
14064
13916.8
13769.7
13622.5
13475.4
13328.2
13181.1
13033.9
12886.8
12739.6
12592.4
12445.3
12298.1
12150.9
12003.7
11856.5
11709.2
11562
11414.7
11267.4
11120.1
10972.8
10825.5
10678.1
10530.7
10383.3
10235.8
10088.3
9940.83
9793.29
9645.71
9498.09
9350.43
9202.73
9055
8907.22
8759.39
8611.53
8463.62
8315.68
8167.7
8019.68
7871.63
7723.54
7575.43
7427.29
7279.12
7130.93
6982.73
6834.51
6686.28
6538.04
6389.8
6241.56
6093.33
5945.1
5796.88
5648.68
5500.49
5352.32
5204.16
5056.02
4907.91
4759.8
4611.72
4463.65
4315.59
4167.54
4019.5
3871.45
3723.39
3575.33
3427.23
3279.11
3130.94
2982.72
2834.43
2686.06
2537.58
2389
2240.29
2091.44
1942.45
1793.3
1644
1494.55
1344.96
1195.23
1045.37
895.473
745.29
595.561
444.306
295.019
144.222
33.5262
-0.0640383
-0.258173
-0.442539
-0.629791
-0.816819
-1.00359
-1.19034
-1.37699
-1.56365
-1.75028
14654.4
14507.2
14360
14212.9
14065.7
13918.6
13771.4
13624.3
13477.1
13330
13182.8
13035.7
12888.5
12741.3
12594.2
12447
12299.8
12152.6
12005.4
11858.2
11710.9
11563.7
11416.4
11269.1
11121.8
10974.4
10827.1
10679.7
10532.2
10384.8
10237.3
10089.8
9942.19
9794.59
9646.94
9499.25
9351.52
9203.74
9055.91
8908.04
8760.11
8612.13
8464.11
8316.04
8167.93
8019.77
7871.57
7723.34
7575.06
7426.76
7278.43
7130.07
6981.69
6833.29
6684.88
6536.46
6388.04
6239.63
6091.21
5942.81
5794.42
5646.05
5497.69
5349.36
5201.04
5052.75
4904.49
4756.24
4608.02
4459.82
4311.63
4163.45
4015.29
3867.12
3718.95
3570.77
3422.57
3274.33
3126.06
2977.73
2829.34
2680.86
2532.3
2383.62
2234.82
2085.9
1936.83
1787.61
1638.24
1488.7
1339.01
1189.16
1039.16
889.127
738.51
588.865
435.987
287.421
134.541
28.6111
-0.054137
-0.251529
-0.436019
-0.624524
-0.812363
-0.99987
-1.1873
-1.3746
-1.56185
-1.74907
14656.1
14508.9
14361.8
14214.6
14067.4
13920.3
13773.1
13626
13478.8
13331.7
13184.5
13037.4
12890.2
12743.1
12595.9
12448.7
12301.5
12154.3
12007.1
11859.9
11712.6
11565.4
11418.1
11270.8
11123.4
10976.1
10828.7
10681.3
10533.8
10386.3
10238.8
10091.2
9943.59
9795.93
9648.22
9500.46
9352.66
9204.79
9056.88
8908.9
8760.87
8612.79
8464.65
8316.45
8168.2
8019.9
7871.56
7723.16
7574.73
7426.26
7277.75
7129.22
6980.66
6832.08
6683.48
6534.88
6386.28
6237.67
6089.08
5940.5
5791.93
5643.38
5494.86
5346.36
5197.89
5049.44
4901.03
4752.64
4604.28
4455.95
4307.64
4159.34
4011.06
3862.79
3714.51
3566.23
3417.92
3269.59
3121.22
2972.8
2824.32
2675.76
2527.11
2378.35
2229.48
2080.49
1931.35
1782.06
1632.61
1483
1333.22
1183.24
1033.07
882.923
731.846
582.395
427.909
280.189
125.273
24.0414
-0.0452158
-0.245567
-0.429902
-0.619725
-0.808286
-0.996476
-1.18455
-1.37246
-1.56029
-1.74807
14657.8
14510.6
14363.5
14216.3
14069.1
13922
13774.9
13627.7
13480.6
13333.4
13186.3
13039.1
12892
12744.8
12597.6
12450.5
12303.3
12156.1
12008.9
11861.6
11714.4
11567.1
11419.8
11272.5
11125.1
10977.8
10830.3
10682.9
10535.4
10387.9
10240.3
10092.7
9945.03
9797.32
9649.55
9501.72
9353.84
9205.9
9057.89
8909.82
8761.69
8613.49
8465.23
8316.91
8168.52
8020.08
7871.58
7723.03
7574.43
7425.78
7277.1
7128.38
6979.64
6830.87
6682.09
6533.29
6384.5
6235.71
6086.92
5938.15
5789.4
5640.68
5491.98
5343.32
5194.68
5046.09
4897.52
4749
4600.51
4452.05
4303.62
4155.21
4006.82
3858.44
3710.07
3561.69
3413.29
3264.87
3116.42
2967.92
2819.36
2670.73
2522.01
2373.19
2224.26
2075.21
1926.01
1776.67
1627.16
1477.47
1327.6
1177.51
1027.17
876.916
725.383
576.114
420.343
273.454
116.598
19.8578
-0.0374673
-0.240097
-0.424288
-0.615412
-0.804593
-0.993404
-1.18208
-1.37055
-1.55893
-1.74724
14659.5
14512.3
14365.2
14218
14070.9
13923.7
13776.6
13629.4
13482.3
13335.2
13188
13040.9
12893.7
12746.6
12599.4
12452.2
12305
12157.8
12010.6
11863.4
11716.1
11568.8
11421.5
11274.2
11126.9
10979.5
10832
10684.6
10537
10389.5
10241.9
10094.2
9946.52
9798.76
9650.93
9503.04
9355.09
9207.06
9058.97
8910.81
8762.57
8614.26
8465.87
8317.42
8168.9
8020.31
7871.65
7722.94
7574.17
7425.35
7276.48
7127.57
6978.64
6829.67
6680.69
6531.7
6382.7
6233.71
6084.74
5935.77
5786.84
5637.93
5489.06
5340.22
5191.43
5042.68
4893.97
4745.31
4596.68
4448.1
4299.55
4151.04
4002.55
3854.08
3705.61
3557.15
3408.67
3260.18
3111.66
2963.09
2814.47
2665.78
2517.01
2368.14
2219.17
2070.07
1920.83
1771.44
1621.88
1472.14
1322.19
1172.01
1021.5
871.147
719.171
569.214
414.314
267.26
108.684
16.0932
-0.0312708
-0.23517
-0.419356
-0.611559
-0.801274
-0.990649
-1.17987
-1.36887
-1.55775
-1.74655
14661.2
14514.1
14366.9
14219.7
14072.6
13925.4
13778.3
13631.2
13484
13336.9
13189.8
13042.6
12895.5
12748.3
12601.2
12454
12306.8
12159.6
12012.4
11865.1
11717.9
11570.6
11423.3
11276
11128.6
10981.2
10833.8
10686.3
10538.7
10391.1
10243.5
10095.8
9948.07
9800.26
9652.37
9504.42
9356.4
9208.3
9060.12
8911.86
8763.51
8615.09
8466.58
8318
8169.33
8020.59
7871.78
7722.9
7573.95
7424.95
7275.89
7126.79
6977.65
6828.48
6679.29
6530.1
6380.89
6231.7
6082.52
5933.36
5784.23
5635.13
5486.08
5337.07
5188.11
5039.2
4890.35
4741.55
4592.8
4444.1
4295.45
4146.83
3998.24
3849.68
3701.14
3552.6
3404.06
3255.51
3106.93
2958.32
2809.65
2660.92
2512.11
2363.2
2214.19
2065.07
1915.8
1766.38
1616.79
1467.01
1317.01
1166.77
1016.13
865.715
713.535
563.379
408.278
261.37
101.611
12.7795
-0.0269058
-0.230557
-0.415235
-0.608107
-0.7983
-0.988202
-1.17792
-1.36741
-1.55675
-1.74599
14662.9
14515.8
14368.6
14221.4
14074.3
13927.2
13780
13632.9
13485.8
13338.6
13191.5
13044.4
12897.2
12750.1
12602.9
12455.8
12308.6
12161.4
12014.2
11866.9
11719.7
11572.4
11425.1
11277.8
11130.4
10983
10835.5
10688
10540.5
10392.9
10245.2
10097.5
9949.68
9801.82
9653.88
9505.87
9357.78
9209.6
9061.34
8912.98
8764.54
8616
8467.37
8318.65
8169.84
8020.95
7871.97
7722.92
7573.79
7424.59
7275.34
7126.03
6976.68
6827.3
6677.9
6528.48
6379.07
6229.65
6080.26
5930.89
5781.56
5632.27
5483.03
5333.85
5184.72
5035.66
4886.66
4737.72
4588.85
4440.04
4291.28
4142.57
3993.9
3845.26
3696.65
3548.05
3399.45
3250.85
3102.23
2953.58
2804.88
2656.12
2507.28
2358.36
2209.33
2060.19
1910.91
1761.48
1611.88
1462.08
1312.06
1161.81
1011.09
860.662
708.442
558.174
403.723
254.972
95.4821
9.94832
-0.0247803
-0.225965
-0.411988
-0.604943
-0.795655
-0.986056
-1.17625
-1.36617
-1.55592
-1.74554
14664.6
14517.5
14370.3
14223.1
14076
13928.9
13781.7
13634.6
13487.5
13340.4
13193.3
13046.1
12899
12751.9
12604.7
12457.5
12310.4
12163.2
12016
11868.8
11721.5
11574.2
11426.9
11279.6
11132.2
10984.8
10837.3
10689.8
10542.2
10394.6
10246.9
10099.2
9951.36
9803.45
9655.47
9507.4
9359.24
9210.99
9062.64
8914.2
8765.65
8617
8468.24
8319.39
8170.43
8021.38
7872.24
7723
7573.68
7424.29
7274.83
7125.31
6975.74
6826.14
6676.5
6526.86
6377.21
6227.58
6077.96
5928.38
5778.83
5629.34
5479.91
5330.54
5181.25
5032.03
4882.88
4733.81
4584.82
4435.9
4287.04
4138.24
3989.5
3840.8
3692.12
3543.48
3394.84
3246.2
3097.55
2948.87
2800.15
2651.37
2502.52
2353.59
2204.57
2055.43
1906.16
1756.74
1607.15
1457.37
1307.36
1157.14
1006.4
855.991
703.84
553.406
399.12
249.626
90.5748
7.62936
-0.0254266
-0.221081
-0.409516
-0.601897
-0.793342
-0.984216
-1.17487
-1.36518
-1.55526
-1.74518
14666.3
14519.2
14372
14224.8
14077.7
13930.6
13783.5
13636.3
13489.2
13342.1
13195
13047.9
12900.8
12753.6
12606.5
12459.3
12312.2
12165
12017.8
11870.6
11723.3
11576.1
11428.8
11281.4
11134.1
10986.6
10839.2
10691.7
10544.1
10396.4
10248.7
10101
9953.1
9805.16
9657.14
9509.02
9360.8
9212.47
9064.04
8915.51
8766.86
8618.09
8469.21
8320.22
8171.11
8021.9
7872.58
7723.16
7573.64
7424.04
7274.36
7124.62
6974.82
6824.98
6675.11
6525.22
6375.33
6225.46
6075.61
5925.79
5776.03
5626.33
5476.7
5327.14
5177.67
5028.29
4879
4729.8
4580.69
4431.67
4282.72
4133.85
3985.04
3836.28
3687.56
3538.87
3390.21
3241.55
3092.88
2944.19
2795.46
2646.69
2497.84
2348.93
2199.91
2050.79
1901.55
1752.16
1602.61
1452.88
1302.92
1152.76
1002.07
851.712
699.715
549.16
395.192
244.969
86.9969
5.84661
-0.0357543
-0.215737
-0.407193
-0.598704
-0.791511
-0.982723
-1.17384
-1.36446
-1.55478
-1.74493
14668
14520.9
14373.7
14226.5
14079.4
13932.3
13785.2
13638.1
13491
13343.9
13196.8
13049.6
12902.5
12755.4
12608.3
12461.1
12314
12166.8
12019.6
11872.4
11725.2
11578
11430.7
11283.3
11136
10988.6
10841.1
10693.6
10546
10398.3
10250.6
10102.8
9954.93
9806.96
9658.89
9510.72
9362.45
9214.06
9065.55
8916.92
8768.17
8619.29
8470.29
8321.16
8171.9
8022.52
7873.01
7723.4
7573.68
7423.86
7273.96
7123.97
6973.93
6823.84
6673.71
6523.57
6373.42
6223.29
6073.19
5923.14
5773.14
5623.22
5473.38
5323.63
5173.98
5024.44
4875.01
4725.68
4576.46
4427.33
4278.31
4129.36
3980.5
3831.7
3682.95
3534.23
3385.56
3236.89
3088.22
2939.54
2790.82
2642.06
2493.24
2344.35
2195.37
2046.29
1897.09
1747.76
1598.27
1448.61
1298.74
1148.68
998.093
847.828
696.062
545.539
391.894
241.688
83.9214
4.62926
-0.0148362
-0.201217
-0.404465
-0.595012
-0.790566
-0.98164
-1.17326
-1.36407
-1.55453
-1.74477
14669.7
14522.5
14375.4
14228.2
14081.1
13934
13786.9
13639.8
13492.7
13345.6
13198.5
13051.4
12904.3
12757.2
12610.1
12463
12315.8
12168.7
12021.5
11874.3
11727.1
11579.9
11432.6
11285.3
11137.9
10990.5
10843
10695.5
10547.9
10400.3
10252.6
10104.8
9956.85
9808.85
9660.75
9512.53
9364.2
9215.75
9067.17
8918.46
8769.6
8620.61
8471.48
8322.21
8172.79
8023.24
7873.55
7723.74
7573.8
7423.75
7273.61
7123.37
6973.07
6822.71
6672.31
6521.89
6371.47
6221.07
6070.7
5920.39
5770.15
5619.99
5469.94
5319.99
5170.16
5020.45
4870.87
4721.42
4572.09
4422.88
4273.78
4124.78
3975.87
3827.04
3678.27
3529.57
3380.88
3232.22
3083.57
2934.9
2786.22
2637.49
2488.71
2339.86
2190.93
2041.9
1892.77
1743.51
1594.1
1444.53
1294.78
1144.87
994.444
844.323
692.868
542.508
389.319
239.359
82.2563
3.94319
0.00756752
-0.194629
-0.402955
-0.592889
-0.790862
-0.98119
-1.17335
-1.36408
-1.55452
-1.74472
14671.4
14524.2
14377.1
14229.9
14082.8
13935.7
13788.6
13641.5
13494.4
13347.3
13200.3
13053.2
12906.1
12759
12611.9
12464.8
12317.7
12170.5
12023.4
11876.2
11729
11581.8
11434.5
11287.2
11139.9
10992.5
10845.1
10697.6
10550
10402.3
10254.6
10106.8
9958.86
9810.83
9662.7
9514.45
9366.07
9217.56
9068.91
8920.12
8771.17
8622.07
8472.81
8323.39
8173.82
8024.09
7874.21
7724.18
7574.02
7423.73
7273.33
7122.83
6972.24
6821.6
6670.9
6520.19
6369.47
6218.78
6068.13
5917.54
5767.04
5616.63
5466.35
5316.19
5166.17
5016.3
4866.57
4717
4567.57
4418.27
4269.11
4120.07
3971.13
3822.29
3673.52
3524.81
3376.15
3227.52
3078.89
2930.27
2781.62
2632.94
2484.22
2335.43
2186.56
2037.6
1888.55
1739.38
1590.08
1440.63
1291.02
1141.29
991.083
841.164
690.088
539.995
387.44
237.774
81.7197
3.71019
-0.0094161
-0.19988
-0.403891
-0.594821
-0.792399
-0.981856
-1.17417
-1.36451
-1.55476
-1.74478
14673.1
14525.9
14378.7
14231.6
14084.5
13937.4
13790.3
13643.2
13496.1
13349.1
13202
13054.9
12907.9
12760.8
12613.7
12466.6
12319.5
12172.4
12025.3
11878.1
11731
11583.8
11436.5
11289.3
11141.9
10994.6
10847.1
10699.6
10552.1
10404.4
10256.7
10108.9
9960.96
9812.93
9664.77
9516.49
9368.07
9219.51
9070.79
8921.92
8772.88
8623.67
8474.28
8324.72
8174.98
8025.07
7874.99
7724.75
7574.35
7423.8
7273.13
7122.34
6971.46
6820.5
6669.49
6518.46
6367.42
6216.41
6065.45
5914.57
5763.78
5613.12
5462.59
5312.21
5162
5011.96
4862.09
4712.4
4562.87
4413.5
4264.29
4115.22
3966.26
3817.42
3668.67
3519.99
3371.36
3222.77
3074.2
2925.62
2777.03
2628.42
2479.76
2331.04
2182.25
2033.38
1884.42
1735.36
1586.18
1436.88
1287.44
1137.91
987.958
838.302
687.653
537.911
386.091
236.783
82.1698
3.91006
-0.0238421
-0.210059
-0.409028
-0.598925
-0.795149
-0.983806
-1.17559
-1.36536
-1.55523
-1.74492
14674.7
14527.6
14380.4
14233.3
14086.2
13939.1
13792
13644.9
13497.9
13350.8
13203.8
13056.7
12909.6
12762.6
12615.5
12468.5
12321.4
12174.3
12027.2
11880.1
11732.9
11585.8
11438.6
11291.3
11144
10996.7
10849.3
10701.8
10554.2
10406.6
10258.9
10111.1
9963.17
9815.13
9666.96
9518.66
9370.21
9221.6
9072.83
8923.88
8774.75
8625.43
8475.91
8326.21
8176.31
8026.21
7875.92
7725.45
7574.79
7423.98
7273.01
7121.92
6970.71
6819.42
6668.07
6516.69
6365.31
6213.95
6062.66
5911.45
5760.37
5609.42
5458.63
5308.03
5157.61
5007.4
4857.39
4707.58
4557.97
4408.54
4259.29
4110.2
3961.26
3812.44
3663.72
3515.09
3366.51
3217.98
3069.47
2920.97
2772.45
2623.91
2475.33
2326.7
2178
2029.23
1880.38
1731.44
1582.4
1433.26
1284.01
1134.7
985.019
835.679
685.475
536.158
385.108
236.224
83.2684
4.45384
-0.0340615
-0.22206
-0.415468
-0.604646
-0.798877
-0.986809
-1.17742
-1.36655
-1.55588
-1.74512
14676.4
14529.2
14382.1
14234.9
14087.8
13940.8
13793.7
13646.6
13499.6
13352.5
13205.5
13058.5
12911.4
12764.4
12617.4
12470.3
12323.3
12176.2
12029.2
11882.1
11734.9
11587.8
11440.6
11293.4
11146.1
10998.8
10851.5
10704
10556.5
10408.9
10261.2
10113.4
9965.49
9817.45
9669.28
9520.96
9372.49
9223.84
9075.02
8926
8776.79
8627.37
8477.73
8327.88
8177.81
8027.52
7877.01
7726.3
7575.38
7424.28
7273
7121.57
6970.02
6818.36
6666.64
6514.87
6363.11
6211.39
6059.73
5908.17
5756.76
5605.5
5454.44
5303.59
5152.97
5002.58
4852.43
4702.51
4552.82
4403.36
4254.09
4105
3956.08
3807.31
3658.65
3510.09
3361.59
3213.14
3064.72
2916.31
2767.88
2619.44
2470.95
2322.42
2173.82
2025.16
1876.43
1727.61
1578.72
1429.75
1280.69
1131.61
982.217
833.215
683.466
534.616
384.361
235.972
84.7157
5.26708
-0.0434457
-0.234412
-0.422702
-0.612067
-0.801946
-0.990133
-1.17939
-1.36795
-1.55668
-1.74537
14678
14530.8
14383.7
14236.6
14089.5
13942.4
13795.4
13648.3
13501.3
13354.2
13207.2
13060.2
12913.2
12766.2
12619.2
12472.2
12325.2
12178.1
12031.1
11884.1
11737
11589.9
11442.7
11295.5
11148.3
11001
10853.7
10706.3
10558.8
10411.3
10263.6
10115.8
9967.93
9819.91
9671.74
9523.42
9374.93
9226.25
9077.39
8928.31
8779.02
8629.5
8479.75
8329.75
8179.51
8029.02
7878.29
7727.32
7576.13
7424.71
7273.1
7121.31
6969.38
6817.32
6665.19
6513.01
6360.83
6208.69
6056.63
5904.7
5752.92
5601.34
5449.98
5298.87
5148.03
4997.46
4847.17
4697.15
4547.41
4397.91
4248.64
4099.59
3950.73
3802.02
3653.45
3504.98
3356.59
3208.25
3059.94
2911.63
2763.32
2614.98
2466.6
2318.18
2169.7
2021.15
1872.54
1723.86
1575.11
1426.31
1277.44
1128.59
979.488
830.821
681.523
533.161
383.661
235.854
86.2947
6.17572
-0.0523514
-0.249077
-0.42956
-0.619706
-0.805632
-0.99356
-1.18146
-1.36939
-1.5575
-1.74565
14679.6
14532.5
14385.3
14238.2
14091.1
13944.1
13797
13650
13503
13356
13209
13062
12915
12768
12621
12474.1
12327.1
12180.1
12033.1
11886.1
11739
11592
11444.9
11297.7
11150.6
11003.3
10856
10708.7
10561.2
10413.7
10266.1
10118.3
9970.49
9822.49
9674.34
9526.03
9377.53
9228.84
9079.95
8930.82
8781.46
8631.85
8481.98
8331.84
8181.43
8030.74
7879.78
7728.54
7577.05
7425.3
7273.33
7121.15
6968.8
6816.31
6663.73
6511.09
6358.45
6205.85
6053.34
5900.99
5748.81
5596.87
5445.19
5293.81
5142.73
4991.98
4841.56
4691.46
4541.67
4392.17
4242.93
4093.93
3945.15
3796.55
3648.09
3499.75
3351.49
3203.28
3055.1
2906.93
2758.74
2610.53
2462.28
2313.97
2165.61
2017.19
1868.7
1720.16
1571.56
1422.91
1274.24
1125.59
976.769
828.403
679.528
531.69
382.751
235.68
87.6103
6.97973
-0.0609205
-0.264879
-0.435851
-0.627254
-0.809237
-0.996966
-1.18348
-1.37074
-1.55827
-1.74594
14681.2
14534.1
14386.9
14239.8
14092.7
13945.7
13798.7
13651.6
13504.6
13357.6
13210.7
13063.7
12916.8
12769.8
12622.9
12475.9
12329
12182
12035.1
11888.1
11741.1
11594.1
11447
11299.9
11152.8
11005.6
10858.4
10711.1
10563.7
10416.3
10268.7
10121
9973.18
9825.22
9677.1
9528.8
9380.32
9231.63
9082.71
8933.55
8784.14
8634.44
8484.46
8334.18
8183.6
8032.7
7881.5
7729.99
7578.17
7426.07
7273.71
7121.11
6968.3
6815.33
6662.25
6509.1
6355.94
6202.83
6049.84
5897.01
5744.4
5592.06
5440.03
5288.35
5137.03
4986.1
4835.55
4685.37
4535.56
4386.08
4236.9
4088
3939.34
3790.87
3642.56
3494.38
3346.28
3198.23
3050.21
2902.19
2754.16
2606.08
2457.96
2309.79
2161.55
2013.25
1864.9
1716.48
1568.02
1419.53
1271.02
1122.56
973.995
825.868
677.356
529.913
381.674
235.029
88.3576
7.46839
-0.0827687
-0.278633
-0.443034
-0.633123
-0.812672
-0.999716
-1.1851
-1.37185
-1.55892
-1.74621
14682.8
14535.6
14388.5
14241.4
14094.3
13947.3
13800.3
13653.3
13506.3
13359.3
13212.4
13065.4
12918.5
12771.6
12624.7
12477.8
12330.9
12184
12037
11890.1
11743.2
11596.2
11449.2
11302.2
11155.1
11008
10860.9
10713.6
10566.3
10418.9
10271.4
10123.8
9975.99
9828.09
9680.01
9531.76
9383.3
9234.62
9085.7
8936.52
8787.06
8637.29
8487.22
8336.8
8186.04
8034.94
7883.49
7731.68
7579.53
7427.05
7274.26
7121.2
6967.89
6814.39
6660.75
6507.03
6353.29
6199.61
6046.06
5892.7
5739.6
5586.82
5434.41
5282.41
5130.85
4979.73
4829.06
4678.83
4529.02
4379.59
4230.52
4081.75
3933.25
3784.97
3636.85
3488.86
3340.96
3193.11
3045.27
2897.43
2749.55
2601.64
2453.66
2305.63
2157.52
2009.35
1861.11
1712.82
1564.49
1416.13
1267.77
1119.46
971.118
823.174
674.941
527.729
380.082
233.733
88.0887
7.4808
-0.10113
-0.287215
-0.450734
-0.636918
-0.815379
-1.00139
-1.18618
-1.3726
-1.55938
-1.74644
14684.3
14537.2
14390
14243
14095.9
13948.9
13801.9
13654.9
13507.9
13361
13214.1
13067.2
12920.3
12773.4
12626.5
12479.6
12332.8
12185.9
12039
11892.2
11745.3
11598.4
11451.5
11304.5
11157.5
11010.5
10863.4
10716.2
10569
10421.6
10274.2
10126.6
9978.95
9831.11
9683.1
9534.89
9386.48
9237.83
9088.93
8939.74
8790.25
8640.43
8490.26
8339.73
8188.8
8037.49
7885.77
7733.66
7581.16
7428.27
7275.02
7121.44
6967.58
6813.49
6659.23
6504.86
6350.47
6196.14
6041.96
5888
5734.35
5581.08
5428.25
5275.91
5124.08
4972.78
4822.01
4671.75
4521.98
4372.65
4223.74
4075.16
3926.87
3778.82
3630.95
3483.2
3335.53
3187.91
3040.28
2892.64
2744.95
2597.21
2449.39
2301.5
2153.52
2005.47
1857.36
1709.18
1560.96
1412.71
1264.46
1116.26
968.077
820.221
672.243
525.057
377.837
231.524
86.6156
6.81786
-0.0910248
-0.296186
-0.450146
-0.638697
-0.815894
-1.00175
-1.18649
-1.37285
-1.55959
-1.74662
14685.9
14538.7
14391.6
14244.5
14097.5
13950.4
13803.5
13656.5
13509.5
13362.6
13215.7
13068.9
12922
12775.1
12628.3
12481.5
12334.7
12187.9
12041
11894.2
11747.4
11600.6
11453.7
11306.8
11159.9
11012.9
10865.9
10718.8
10571.7
10424.4
10277.1
10129.6
9982.04
9834.28
9686.35
9538.22
9389.87
9241.28
9092.41
8943.23
8793.74
8643.88
8493.64
8342.99
8191.91
8040.38
7888.41
7735.97
7583.09
7429.76
7276.01
7121.87
6967.4
6812.64
6657.68
6502.58
6347.45
6192.38
6037.48
5882.84
5728.57
5574.74
5421.45
5268.73
5116.62
4965.15
4814.29
4664.04
4514.36
4365.19
4216.48
4068.17
3920.16
3772.41
3624.84
3477.38
3330
3182.64
3035.27
2887.85
2740.37
2592.8
2445.15
2297.41
2149.57
2001.64
1853.63
1705.55
1557.42
1409.25
1261.09
1112.95
964.867
816.983
669.17
521.887
374.872
228.374
83.6765
5.34254
-0.0836601
-0.303853
-0.444235
-0.638292
-0.813962
-1.00081
-1.18596
-1.37258
-1.55954
-1.74673
14687.4
14540.2
14393.1
14246
14099
13952
13805
13658.1
13511.1
13364.2
13217.4
13070.5
12923.7
12776.9
12630.1
12483.3
12336.6
12189.8
12043
11896.3
11749.5
11602.8
11456
11309.2
11162.3
11015.5
10868.5
10721.5
10574.5
10427.4
10280.1
10132.8
9985.26
9837.61
9689.78
9541.75
9393.49
9244.97
9096.16
8947.02
8797.54
8647.67
8497.37
8346.63
8195.4
8043.67
7891.42
7738.66
7585.37
7431.58
7277.28
7122.52
6967.36
6811.86
6656.09
6500.17
6344.19
6188.27
6032.54
5877.12
5722.14
5567.69
5413.86
5260.74
5108.35
4956.7
4805.8
4655.6
4506.06
4357.13
4208.71
4060.73
3913.09
3765.71
3618.51
3471.41
3324.37
3177.32
3030.23
2883.06
2735.81
2588.44
2440.97
2293.37
2145.66
1997.85
1849.94
1701.94
1553.88
1405.77
1257.65
1109.54
961.449
813.506
665.687
518.229
371.141
224.297
79.3634
2.94045
-0.0548712
-0.300901
-0.430784
-0.634634
-0.809523
-0.998721
-1.18465
-1.37186
-1.55925
-1.74678
14688.8
14541.7
14394.6
14247.5
14100.5
13953.5
13806.5
13659.6
13512.7
13365.8
13219
13072.2
12925.4
12778.6
12631.9
12485.1
12338.4
12191.7
12045
11898.3
11751.6
11605
11458.3
11311.5
11164.8
11018
10871.2
10724.3
10577.4
10430.4
10283.2
10136
9988.63
9841.1
9693.4
9545.48
9397.33
9248.91
9100.19
8951.13
8801.68
8651.82
8501.5
8350.68
8199.33
8047.41
7894.89
7741.78
7588.07
7433.76
7278.87
7123.43
6967.5
6811.15
6654.48
6497.6
6340.64
6183.75
6027.06
5870.74
5714.92
5559.75
5405.34
5251.77
5099.08
4947.29
4796.37
4646.29
4496.98
4348.36
4200.34
4052.8
3905.62
3758.7
3611.95
3465.28
3318.64
3171.95
3025.18
2878.3
2731.29
2584.14
2436.84
2289.4
2141.82
1994.11
1846.29
1698.36
1550.35
1402.27
1254.15
1106.01
957.872
809.802
661.838
514.095
366.699
219.344
74.5985
0.67249
-0.00507741
-0.278634
-0.414529
-0.628249
-0.803784
-0.995906
-1.1828
-1.37086
-1.55882
-1.74679
14690.2
14543.1
14396
14248.9
14101.9
13955
13808
13661.1
13514.2
13367.4
13220.6
13073.8
12927
12780.3
12633.6
12486.9
12340.3
12193.6
12047
11900.4
11753.8
11607.2
11460.5
11313.9
11167.3
11020.6
10873.9
10727.1
10580.3
10433.4
10286.4
10139.4
9992.13
9844.75
9697.19
9549.42
9401.41
9253.13
9104.52
8955.56
8806.19
8656.38
8506.06
8355.2
8203.74
8051.64
7898.86
7745.39
7591.24
7436.38
7280.84
7124.64
6967.84
6810.54
6652.83
6494.86
6336.77
6178.73
6020.91
5863.53
5706.75
5550.75
5395.67
5241.61
5088.61
4936.7
4785.83
4635.94
4486.99
4338.81
4191.3
4044.32
3897.71
3751.37
3605.16
3459.01
3312.82
3166.55
3020.15
2873.58
2726.84
2579.91
2432.8
2285.51
2138.06
1990.45
1842.7
1694.83
1546.85
1398.77
1250.63
1102.43
954.174
805.918
657.699
509.555
361.64
213.414
70.5422
0.339265
0.00376978
-0.201038
-0.398556
-0.613052
-0.796753
-0.992436
-1.18071
-1.36978
-1.55836
-1.74678
14691.6
14544.5
14397.4
14250.3
14103.3
13956.4
13809.5
13662.6
13515.7
13368.9
13222.1
13075.4
12928.7
12782
12635.3
12488.7
12342.1
12195.5
12049
11902.4
11755.9
11609.4
11462.8
11316.3
11169.8
11023.2
10876.6
10730
10583.3
10436.6
10289.7
10142.8
9995.76
9848.55
9701.16
9553.57
9405.74
9257.62
9109.17
8960.34
8811.09
8661.36
8511.09
8360.21
8208.68
8056.43
7903.41
7749.59
7594.96
7439.51
7283.25
7126.21
6968.44
6810.05
6651.15
6491.91
6332.48
6173.09
6013.96
5855.31
5697.39
5540.42
5384.58
5229.98
5076.69
4924.7
4773.96
4624.38
4475.9
4328.34
4181.51
4035.24
3889.36
3743.71
3598.16
3452.61
3306.97
3161.17
3015.17
2868.94
2722.49
2575.79
2428.87
2281.73
2134.39
1986.87
1839.19
1691.36
1543.39
1395.3
1247.11
1098.81
950.413
801.934
653.387
504.762
356.173
207.031
66.4355
0.321965
-0.0381493
-0.19998
-0.406946
-0.607906
-0.795453
-0.990581
-1.17944
-1.36906
-1.55806
-1.74681
14693
14545.8
14398.7
14251.7
14104.7
13957.8
13810.9
13664
13517.2
13370.4
13223.6
13076.9
12930.3
12783.6
12637
12490.4
12343.9
12197.4
12050.9
11904.4
11758
11611.5
11465.1
11318.7
11172.3
11025.8
10879.4
10732.9
10586.4
10439.8
10293.1
10146.4
9999.51
9852.49
9705.31
9557.93
9410.3
9262.38
9114.13
8965.49
8816.4
8666.8
8516.62
8365.78
8214.21
8061.85
7908.62
7754.45
7599.31
7443.23
7286.19
7128.21
6969.35
6809.71
6649.43
6488.7
6327.71
6166.73
6006.02
5845.86
5686.57
5528.45
5371.73
5216.55
5062.97
4910.98
4760.49
4611.36
4463.57
4316.82
4170.87
4025.51
3880.52
3735.73
3590.97
3446.13
3301.11
3155.84
3010.29
2864.43
2718.27
2571.81
2425.07
2278.08
2130.84
1983.4
1835.77
1687.96
1540
1391.89
1243.64
1095.23
946.669
797.946
649.046
499.915
350.587
200.493
62.1659
0.254293
-0.0485991
-0.197692
-0.414206
-0.607488
-0.79684
-0.990202
-1.17922
-1.36889
-1.558
-1.74689
14694.3
14547.1
14400.1
14253
14106.1
13959.1
13812.2
13665.4
13518.6
13371.8
13225.1
13078.4
12931.8
12785.2
12638.7
12492.1
12345.7
12199.2
12052.8
11906.4
11760
11613.7
11467.4
11321.1
11174.8
11028.5
10882.2
10735.8
10589.5
10443.1
10296.6
10150
10003.4
9856.58
9709.63
9562.48
9415.1
9267.43
9119.42
8971.01
8822.14
8672.73
8522.69
8371.95
8220.41
8067.98
7914.56
7760.06
7604.43
7447.66
7289.77
7130.75
6970.64
6809.56
6647.67
6485.18
6322.35
6159.47
5996.86
5834.86
5673.89
5514.38
5356.65
5200.86
5047.03
4895.14
4745.05
4596.73
4449.8
4304.1
4159.29
4015.08
3871.21
3727.46
3583.64
3439.63
3295.32
3150.65
3005.58
2860.11
2714.25
2568.02
2421.45
2274.58
2127.44
1980.06
1832.47
1684.68
1536.71
1388.57
1240.26
1091.74
943.025
794.071
644.843
495.247
345.246
194.515
58.0595
0.201595
-0.0544587
-0.20709
-0.422293
-0.607959
-0.799071
-0.990776
-1.17978
-1.36919
-1.55819
-1.74704
14695.5
14548.4