/*--------------------------------*- C++ -*----------------------------------*\
| =========                 |                                                 |
| \\      /  F ield         | OpenFOAM: The Open Source CFD Toolbox           |
|  \\    /   O peration     | Version:  v2106                                 |
|   \\  /    A nd           | Website:  www.openfoam.com                      |
|    \\/     M anipulation  |                                                 |
\*---------------------------------------------------------------------------*/
FoamFile
{
    version     2.0;
    format      ascii;
    arch        "LSB;label=32;scalar=64";
    class       volScalarField;
    location    "1.2";
    object      p_rgh;
}
// * * * * * * * * * * * * * * * * * * * * * * * * * * * * * * * * * * * * * //

dimensions      [1 -1 -2 0 0 0 0];

internalField   nonuniform List<scalar> 
29678
(
0.868993
0.870117
0.871999
0.873897
0.875535
0.876657
0.877163
0.877055
0.876374
0.875125
0.873259
0.870828
0.867685
0.863896
0.860181
0.85665
0.852858
0.848517
0.843438
0.837476
0.830474
0.822262
0.81265
0.801516
0.788765
0.774278
0.757934
0.739588
0.719038
0.6959
0.669246
0.639734
0.608209
0.57405
0.53714
0.497541
0.455227
0.410217
0.36263
0.312786
0.261486
0.209577
0.154734
0.0945414
0.0314623
-0.0332703
-0.0999835
-0.168907
-0.239963
-0.312978
-0.387765
-0.464081
-0.54167
-0.620268
-0.699615
-0.779452
-0.859531
-0.939621
-1.01951
-1.09902
-1.17799
-1.25629
-1.33381
-1.41048
-1.48627
-1.56117
-1.63522
-1.70851
-1.78116
-1.85337
-1.92537
-1.99746
-2.07006
-2.14366
-2.21892
-2.2967
-2.37812
-2.46462
-2.5579
-2.65928
-2.76786
-2.88202
-3.24367
-3.74049
-4.50189
-5.56997
-6.9356
-8.56635
-10.429
-12.5049
-14.8141
-17.4629
-19.9578
-23.3956
-26.2808
-31.1998
-30.7104
-34.0367
-23.5857
-0.124109
-0.0349113
-0.0225543
-0.0331329
-0.0227898
-0.0292738
-0.0241101
-0.0240943
-0.0200833
-0.0173973
-0.0153665
2.59454
2.594
2.5927
2.59057
2.58827
2.58612
2.58416
2.5822
2.58001
2.57722
2.57363
2.56961
2.56561
2.56109
2.5554
2.54811
2.53889
2.52737
2.51322
2.4961
2.47567
2.45157
2.42342
2.39088
2.35364
2.31135
2.26367
2.21027
2.15082
2.08497
2.01226
1.93222
1.84397
1.7471
1.6423
1.52966
1.409
1.28024
1.14335
0.998627
0.846589
0.685902
0.513812
0.330535
0.140017
-0.0561554
-0.258919
-0.468373
-0.684214
-0.905955
-1.13302
-1.36472
-1.60032
-1.83903
-2.08006
-2.32263
-2.56597
-2.80936
-3.05214
-3.29373
-3.5336
-3.77133
-4.00656
-4.23906
-4.46867
-4.69536
-4.91921
-5.14047
-5.35953
-5.57694
-5.79346
-6.01007
-6.22801
-6.44886
-6.67467
-6.90803
-7.15241
-7.41254
-7.69537
-8.01241
-8.38616
-8.86749
-9.36155
-10.0669
-11.0019
-12.1847
-13.6153
-15.2798
-17.1595
-19.2398
-21.5142
-23.9835
-26.4874
-29.2964
-31.7014
-35.2096
-34.5766
-38.617
-29.6321
-0.198971
-0.0384954
-0.0240971
-0.0316096
-0.0203983
-0.0230076
-0.0182765
-0.0174495
-0.0148332
-0.0132053
-0.0122421
4.31912
4.31763
4.31458
4.31021
4.30576
4.30185
4.29853
4.29546
4.29208
4.2878
4.28345
4.27954
4.2752
4.26945
4.261
4.24926
4.234
4.21478
4.19108
4.16235
4.12803
4.08759
4.04044
3.98603
3.92378
3.85313
3.77352
3.68442
3.58536
3.47601
3.3566
3.22577
3.08173
2.92408
2.75191
2.56554
2.36576
2.15221
1.92462
1.68318
1.42711
1.15381
0.864285
0.561761
0.24682
-0.0800788
-0.41888
-0.769233
-1.13048
-1.50174
-1.88199
-2.27007
-2.66472
-3.06462
-3.46844
-3.87483
-4.28249
-4.6902
-5.09683
-5.50136
-5.90292
-6.30073
-6.6942
-7.08286
-7.46644
-7.84485
-8.21823
-8.58693
-8.95159
-9.31312
-9.67273
-10.032
-10.3929
-10.758
-11.1305
-11.5145
-11.915
-12.3389
-12.7953
-13.297
-13.8616
-14.5094
-15.2594
-16.1639
-17.2565
-18.5554
-20.0653
-21.7808
-23.6903
-25.7794
-28.0312
-30.4228
-32.8654
-35.4684
-37.6733
-40.4424
-40.4084
-42.7552
-38.1835
-0.125114
-0.0172765
-0.0134001
-0.0127973
-0.0106752
-0.0117109
-0.0108935
-0.0109366
-0.0104745
-0.0103081
-0.0104549
6.04262
6.04029
6.03572
6.02941
6.02319
6.01792
6.0137
6.00991
6.00577
6.00191
5.99925
5.99613
5.99049
5.98188
5.96978
5.95351
5.93244
5.90589
5.87312
5.83337
5.78583
5.72973
5.66428
5.58872
5.50226
5.4041
5.29349
5.16966
5.0319
4.87953
4.71195
4.52823
4.32785
4.11006
3.87275
3.61493
3.33672
3.03847
2.72042
2.38217
2.02158
1.63729
1.23185
0.808352
0.366878
-0.0922719
-0.568636
-1.06149
-1.56981
-2.09233
-2.62756
-3.17386
-3.72943
-4.29241
-4.86088
-5.43294
-6.00673
-6.58049
-7.15262
-7.72164
-8.28626
-8.84537
-9.39805
-9.94363
-10.4817
-11.012
-11.5347
-12.0503
-12.5597
-13.0639
-13.5648
-14.0643
-14.5653
-15.071
-15.5856
-16.1144
-16.6637
-17.2416
-17.8582
-18.5266
-19.2629
-20.0864
-21.0166
-22.085
-23.316
-24.7251
-26.3187
-28.0953
-30.0474
-32.1616
-34.4181
-36.7876
-39.2125
-41.716
-43.9295
-46.3324
-47.0902
-49.2306
-47.203
-0.107434
-0.00475622
-0.00567096
-0.00515374
-0.0044563
-0.00535455
-0.00548368
-0.0060671
-0.0065407
-0.00718884
-0.00804851
7.76515
7.76206
7.75616
7.74815
7.74045
7.7342
7.72947
7.7254
7.72212
7.72062
7.71925
7.7152
7.70792
7.69703
7.68181
7.66141
7.63498
7.60163
7.5604
7.51031
7.45034
7.37946
7.29668
7.20101
7.09143
6.96693
6.8265
6.66915
6.49389
6.29975
6.0858
5.85104
5.59457
5.31541
5.01263
4.68462
4.32999
3.94876
3.54073
3.10495
2.6399
2.1456
1.62439
1.07834
0.508287
-0.0851449
-0.70116
-1.33869
-1.99636
-2.67248
-3.36512
-4.07212
-4.79114
-5.51973
-6.2554
-6.99563
-7.73799
-8.48017
-9.22002
-9.95559
-10.6851
-11.4071
-12.1204
-12.8238
-13.5169
-14.1994
-14.8712
-15.5331
-16.1859
-16.8312
-17.4709
-18.1077
-18.745
-19.3866
-20.0378
-20.7046
-21.3941
-22.1154
-22.879
-23.6978
-24.5866
-25.5624
-26.6436
-27.8521
-29.2063
-30.7194
-32.3985
-34.2448
-36.2535
-38.4138
-40.7083
-43.1119
-45.5873
-48.1117
-50.5071
-52.9055
-54.4896
-57.036
-56.8599
-0.0814298
0.00657355
0.00270973
0.00320788
0.00224312
0.000772998
-0.000448515
-0.00182143
-0.00315545
-0.00457519
-0.00607312
9.48671
9.48296
9.47593
9.4665
9.45767
9.45086
9.44608
9.44291
9.44213
9.44277
9.44143
9.43672
9.42842
9.41583
9.39808
9.37417
9.34306
9.30363
9.25475
9.19521
9.12378
9.03922
8.94031
8.82582
8.69449
8.54506
8.37627
8.18687
7.97559
7.74118
7.48244
7.19817
6.88723
6.54844
6.18057
5.78198
5.35137
4.88771
4.38986
3.85669
3.2875
2.68288
2.04488
1.37523
0.675121
-0.0543995
-0.812159
-1.59671
-2.40628
-3.23874
-4.09166
-4.96235
-5.8479
-6.74524
-7.65125
-8.56278
-9.47679
-10.3904
-11.3007
-12.2054
-13.1022
-13.989
-14.8644
-15.727
-16.5759
-17.4106
-18.2313
-19.0384
-19.8332
-20.6173
-21.393
-22.1634
-22.9324
-23.7047
-24.4859
-25.2828
-26.1033
-26.9567
-27.8538
-28.8071
-29.8305
-30.9387
-32.1488
-33.478
-34.9413
-36.5507
-38.3139
-40.2342
-42.3099
-44.5341
-46.8943
-49.3741
-51.9472
-54.5712
-57.2444
-59.8044
-62.3706
-64.9672
-66.6288
-0.0612216
0.0174331
0.0104616
0.0103985
0.00827888
0.00603289
0.0039969
0.00190416
-0.000136785
-0.00222229
-0.00432869
11.2072
11.2029
11.1949
11.1844
11.1748
11.1678
11.1637
11.1631
11.1655
11.1673
11.166
11.1614
11.1527
11.1391
11.1195
11.0929
11.0579
11.0134
10.9579
10.89
10.8083
10.7115
10.5979
10.4661
10.3146
10.142
9.94654
9.7268
9.4812
9.20821
8.90632
8.57406
8.20998
7.81263
7.38049
6.91188
6.4051
5.85852
5.27059
4.64017
3.9671
3.25223
2.49702
1.703
0.871629
0.00433019
-0.897302
-1.83139
-2.79569
-3.7876
-4.80415
-5.84207
-6.89783
-7.96771
-9.04789
-10.1346
-11.224
-12.3125
-13.3968
-14.4737
-15.5405
-16.5946
-17.634
-18.6571
-19.6626
-20.6499
-21.6189
-22.5702
-23.5051
-24.4253
-25.3336
-26.2335
-27.1291
-28.0259
-28.93
-29.8487
-30.7903
-31.7644
-32.7818
-33.8548
-34.9961
-36.2194
-37.5406
-38.9745
-40.5344
-42.2319
-44.0757
-46.0714
-48.2205
-50.5207
-52.9659
-55.5485
-58.252
-61.0021
-64.0352
-66.6145
-70.7194
-72.8555
-76.5026
-0.0422133
0.0279344
0.0177337
0.0173048
0.0139899
0.0108997
0.00806741
0.00525489
0.00253774
-0.000176924
-0.00287413
12.9265
12.9216
12.9129
12.9015
12.8914
12.8846
12.883
12.8863
12.8912
12.8938
12.8935
12.8897
12.8814
12.8675
12.8471
12.8186
12.7808
12.7323
12.6713
12.5965
12.5061
12.3985
12.2719
12.1247
11.9549
11.7609
11.5408
11.2927
11.0147
10.705
10.3617
9.98312
9.56736
9.11266
8.61717
8.07895
7.49603
6.86652
6.18875
5.46162
4.685
3.85961
2.98655
2.0672
1.10318
0.0962454
-0.951606
-2.03803
-3.16029
-4.31523
-5.49932
-6.70864
-7.93897
-9.1859
-10.4448
-11.7112
-12.9805
-14.2484
-15.5107
-16.7636
-18.0037
-19.2279
-20.4337
-21.6189
-22.782
-23.9221
-25.0389
-26.1331
-27.2059
-28.2593
-29.2964
-30.3209
-31.3376
-32.3523
-33.3717
-34.4035
-35.4564
-36.5401
-37.6653
-38.8439
-40.0882
-41.4118
-42.8295
-44.3547
-46.0001
-47.7773
-49.6965
-51.7654
-53.9893
-56.3706
-58.911
-61.6116
-64.4698
-67.3483
-70.8153
-73.31
-79.0378
-80.4541
-86.1838
-0.024232
0.0378376
0.0243769
0.0238251
0.0192571
0.0153558
0.0117863
0.00829111
0.00493418
0.00161538
-0.00166229
14.6442
14.639
14.6297
14.6178
14.6075
14.6023
14.6045
14.6116
14.6183
14.6226
14.6242
14.6219
14.6149
14.6018
14.5814
14.5523
14.5129
14.4617
14.3968
14.3166
14.2191
14.1026
13.965
13.8043
13.6184
13.4052
13.1625
12.8882
12.58
12.2356
11.853
11.43
10.9643
10.4538
9.89624
9.28948
8.63123
7.91943
7.15233
6.32875
5.44846
4.51199
3.52016
2.47421
1.37586
0.227117
-0.969632
-2.21158
-3.49548
-4.8176
-6.17374
-7.55932
-8.96935
-10.3986
-11.8417
-13.2932
-14.7477
-16.2
-17.6451
-19.0785
-20.4958
-21.8935
-23.2683
-24.6176
-25.9395
-27.2328
-28.497
-29.7326
-30.941
-32.1243
-33.2859
-34.4299
-35.5614
-36.6868
-37.8132
-38.9487
-40.1024
-41.2841
-42.5046
-43.7754
-45.1087
-46.5186
-48.0187
-49.6222
-51.3416
-53.1891
-55.1764
-57.314
-59.6102
-62.0727
-64.7098
-67.5318
-70.5574
-73.5524
-77.4788
-79.7803
-87.1158
-87.6856
-95.4524
-0.00890573
0.0467576
0.0303397
0.0299414
0.0240565
0.0194327
0.01518
0.0110405
0.00707502
0.00317822
-0.000659939
16.3602
16.3546
16.345
16.3326
16.3226
16.321
16.3279
16.3382
16.347
16.354
16.3582
16.3585
16.3537
16.3424
16.3233
16.2948
16.2552
16.2028
16.1357
16.0519
15.9494
15.826
15.6795
15.5075
15.3078
15.0778
14.8151
14.517
14.1809
13.8044
13.3848
12.9195
12.4059
11.8415
11.2237
10.5499
9.81759
9.02452
8.16879
7.24905
6.2649
5.21667
4.10499
2.93094
1.69627
0.403216
-0.945506
-2.34664
-3.7964
-5.29043
-6.82386
-8.3913
-9.98697
-11.6047
-13.2383
-14.8812
-16.5271
-18.1698
-19.8033
-21.4223
-23.0216
-24.5968
-26.1439
-27.6597
-29.1419
-30.5888
-31.9999
-33.3754
-34.7168
-36.0265
-37.308
-38.5658
-39.8056
-41.034
-42.2588
-43.4884
-44.7323
-46.0005
-47.3038
-48.6532
-50.0621
-51.5441
-53.1127
-54.7807
-56.5611
-58.467
-60.5119
-62.7085
-65.0683
-67.6037
-70.329
-73.2626
-76.4599
-79.559
-83.9423
-86.0612
-94.6816
-94.4214
-104.127
0.00651918
0.0545014
0.0358088
0.0355556
0.0283689
0.0231258
0.018252
0.0135168
0.00898059
0.0045388
0.000169713
18.0739
18.0681
18.0583
18.0457
18.0372
18.0403
18.0522
18.0653
18.0774
18.0879
18.0958
18.0996
18.0981
18.0899
18.0734
18.047
18.0088
17.957
17.8895
17.8041
17.6987
17.5707
17.4177
17.2371
17.0261
16.782
16.5018
16.1827
15.8216
15.4155
14.9616
14.4566
13.8977
13.2817
12.6058
11.8668
11.0621
10.1891
9.24566
8.23021
7.14206
5.98145
4.74877
3.44492
2.07166
0.631412
-0.872807
-2.43731
-4.05775
-5.72913
-7.44582
-9.20159
-10.9897
-12.8031
-14.6344
-16.476
-18.3205
-20.1606
-21.9893
-23.8
-25.5867
-27.344
-29.0672
-30.7524
-32.3967
-33.998
-35.5555
-37.0694
-38.5412
-39.9734
-41.3699
-42.7355
-44.0764
-45.3998
-46.7139
-48.0276
-49.3506
-50.6932
-52.0656
-53.4803
-54.9506
-56.4902
-58.1123
-59.83
-61.6568
-63.6068
-65.6949
-67.9362
-70.3453
-72.9388
-75.7363
-78.7625
-82.1261
-85.3285
-90.1539
-92.9609
-100.711
-100.615
-112.041
0.0188692
0.0606979
0.0407366
0.0404879
0.0322223
0.0264449
0.0210069
0.0157255
0.0106607
0.00571451
0.000854522
19.785
19.7791
19.7693
19.7568
19.7516
19.7597
19.7763
19.7929
19.8092
19.8243
19.8367
19.8452
19.8483
19.8444
19.8321
19.8094
19.7744
19.7252
19.6594
19.5747
19.4687
19.3387
19.1819
18.9953
18.7759
18.5206
18.226
17.8889
17.5059
17.0734
16.5882
16.0466
15.4452
14.7804
14.0489
13.2471
12.3721
11.4207
10.3908
9.28028
8.08817
6.81462
5.45974
4.02424
2.50988
0.919187
-0.744523
-2.47714
-4.27375
-6.12866
-8.03543
-9.9869
-11.9753
-13.9925
-16.0299
-18.0787
-20.1302
-22.1759
-24.2075
-26.2171
-28.1977
-30.1427
-32.0465
-33.9046
-35.7132
-37.4699
-39.1735
-40.8241
-42.4233
-43.9738
-45.4797
-46.9465
-48.3808
-49.7903
-51.1838
-52.5706
-53.9607
-55.3649
-56.7928
-58.2585
-59.7759
-61.3584
-63.0194
-64.7723
-66.6308
-68.6099
-70.7261
-72.996
-75.4372
-78.0697
-80.9169
-84.0036
-87.4989
-90.7603
-95.79
-98.796
-106.747
-106.505
-119.114
0.0301484
0.065063
0.0453493
0.044609
0.0356742
0.029419
0.0234545
0.0176692
0.0121205
0.0067176
0.00141634
21.4929
21.4869
21.4772
21.4653
21.4648
21.4789
21.4997
21.5208
21.5422
21.5627
21.5809
21.5952
21.6042
21.6063
21.5998
21.5826
21.5529
21.5083
21.4466
21.3651
21.2612
21.1319
20.9741
20.7846
20.56
20.2967
19.991
19.6394
19.2378
18.7825
18.2695
17.6947
17.0541
16.3437
15.5596
14.6979
13.7549
12.7273
11.6124
10.4078
9.11191
7.72502
6.24673
4.67764
3.01941
1.27468
-0.552989
-2.45905
-4.43802
-6.48346
-8.58805
-10.7436
-12.9414
-15.1718
-17.425
-19.6909
-21.9593
-24.22
-26.4635
-28.6805
-30.8625
-33.0018
-35.0917
-37.1266
-39.1022
-41.0155
-42.8649
-44.6505
-46.3739
-48.038
-49.6475
-51.2082
-52.7275
-54.2137
-55.6761
-57.1248
-58.5701
-60.0214
-61.4928
-62.997
-64.5481
-66.1599
-67.846
-69.6199
-71.4956
-73.4889
-75.6167
-77.8972
-80.3495
-82.9962
-85.8628
-88.9676
-92.5396
-95.8132
-100.883
-104.001
-111.302
-112.903
-125.243
0.0411811
0.0671885
0.0499409
0.0478555
0.0388386
0.0320639
0.0256006
0.0193426
0.0133564
0.00755219
0.00186966
23.1969
23.1909
23.1814
23.1711
23.1759
23.1962
23.2217
23.2482
23.2758
23.3028
23.3279
23.3494
23.3659
23.3756
23.3766
23.367
23.3446
23.3072
23.252
23.1764
23.0774
22.9518
22.7963
22.6071
22.3807
22.113
21.8
21.4376
21.0215
20.5472
20.0103
19.4062
18.7303
17.9781
17.1449
16.2264
15.2184
14.1171
12.9191
11.6217
10.2227
8.72197
7.11916
5.4145
3.60948
1.70678
-0.289776
-2.37522
-4.54346
-6.78731
-9.09852
-11.4679
-13.8852
-16.3398
-18.8201
-21.3145
-23.8112
-26.2982
-28.7643
-31.1984
-33.5907
-35.9319
-38.214
-40.4306
-42.5763
-44.6476
-46.6426
-48.5613
-50.4054
-52.1782
-53.8847
-55.5316
-57.1269
-58.6798
-60.2005
-61.6997
-63.1883
-64.6747
-66.1761
-67.7055
-69.2768
-70.904
-72.6008
-74.3808
-76.2582
-78.2486
-80.3694
-82.6391
-85.0779
-87.7096
-90.561
-93.6389
-97.2282
-100.484
-105.485
-108.769
-115.905
-118.249
-130.15
0.0550271
0.0665421
0.0548254
0.0503278
0.0418842
0.0343768
0.0274398
0.0207243
0.014353
0.00821325
0.00222275
24.8962
24.8905
24.8814
24.8735
24.8841
24.9107
24.9416
24.9746
25.0092
25.0439
25.0772
25.1074
25.1329
25.152
25.1626
25.1627
25.1501
25.1222
25.0764
25.0096
24.9186
24.8
24.6501
24.4649
24.2404
23.9723
23.6561
23.2872
22.8608
22.3719
21.8156
21.1867
20.4799
19.6901
18.8119
17.8405
16.7709
15.5988
14.3201
12.9315
11.4304
9.81563
8.08726
6.24504
4.29012
2.22524
0.0544239
-2.21695
-4.5822
-7.03335
-9.56116
-12.1552
-14.8041
-17.4954
-20.2159
-22.9522
-25.6904
-28.4167
-31.1176
-33.7805
-36.3933
-38.9453
-41.427
-43.8306
-46.1501
-48.3811
-50.5215
-52.5711
-54.5318
-56.4075
-58.2039
-59.9282
-61.5894
-63.1979
-64.7648
-66.3019
-67.8155
-69.3265
-70.8447
-72.3849
-73.9613
-75.5884
-77.28
-79.0497
-80.9116
-82.8809
-84.9749
-87.2118
-89.6118
-92.1991
-95.001
-98.0101
-101.556
-104.763
-109.61
-113.015
-119.833
-122.906
-133.728
0.0731122
0.0562145
0.0601692
0.0526504
0.0450772
0.0362074
0.0289334
0.0217585
0.0150746
0.00868473
0.00247788
26.59
26.5847
26.5763
26.5717
26.5887
26.6218
26.6587
26.699
26.7418
26.7853
26.8281
26.8686
26.9049
26.9352
26.9575
26.9697
26.9694
26.9539
26.9203
26.8654
26.7857
26.6776
26.5371
26.3598
26.1414
25.8772
25.5623
25.1915
24.7597
24.2612
23.6905
23.0417
22.309
21.4864
20.568
19.548
18.4209
17.1815
15.825
14.3474
12.7453
11.0168
9.16217
7.1804
5.07238
2.84083
0.489937
-1.97458
-4.54545
-7.21392
-9.96969
-12.8011
-15.6951
-18.6377
-21.6136
-24.6072
-27.6024
-30.583
-33.5332
-36.438
-39.2833
-42.0564
-44.7461
-47.3432
-49.8406
-52.2332
-54.5187
-56.6967
-58.7696
-60.7418
-62.6197
-64.4115
-66.1273
-67.7785
-69.3781
-70.9416
-72.4664
-73.9826
-75.5012
-77.0358
-78.6009
-80.2111
-81.8807
-83.6234
-85.4527
-87.3834
-89.4319
-91.6155
-93.9535
-96.469
-99.1885
-102.091
-105.532
-108.647
-113.263
-116.636
-123.131
-126.187
-136.804
0.110674
0.0771325
0.0746883
0.0553792
0.0487696
0.0371526
0.0300162
0.0223303
0.0154638
0.00893968
0.00263299
28.2772
28.2723
28.2648
28.2645
28.2885
28.3282
28.3719
28.4204
28.4723
28.526
28.5798
28.6321
28.681
28.7247
28.761
28.7878
28.8024
28.8021
28.7838
28.7442
28.6794
28.5856
28.4584
28.2933
28.0856
27.83
27.5213
27.154
26.722
26.2194
25.6399
24.9769
24.2238
23.374
22.4207
21.3573
20.1774
18.8749
17.4442
15.8803
14.1791
12.3371
10.3562
8.23274
5.96841
3.5655
1.02825
-1.63732
-4.42345
-7.32053
-10.3172
-13.4003
-16.5553
-19.7658
-23.0146
-26.2834
-29.5534
-32.8058
-36.022
-39.1842
-42.2758
-45.2819
-48.1893
-50.9873
-53.6673
-56.2239
-58.6541
-60.9579
-63.1379
-65.1994
-67.1497
-68.9983
-70.7563
-72.4362
-74.0506
-75.609
-77.1438
-78.6539
-80.1576
-81.6705
-83.208
-84.7852
-86.4167
-88.1161
-89.8967
-91.7724
-93.7579
-95.869
-98.1229
-100.541
-103.146
-105.904
-109.181
-112.152
-116.457
-119.667
-125.706
-128.516
-138.469
0.149435
0.0995363
0.081278
0.0568884
0.0508925
0.0368569
0.0304659
0.0222465
0.0154546
0.00895026
0.00268353
29.9564
29.9519
29.9458
29.9504
29.9818
30.0283
30.0798
30.1375
30.1998
30.2649
30.3312
30.397
30.4604
30.5196
30.5723
30.6162
30.6487
30.6667
30.667
30.6461
30.6001
30.5246
30.4151
30.2668
30.0746
29.8329
29.5359
29.1775
28.7514
28.2508
27.6686
26.9977
26.2307
25.36
24.378
23.2771
22.0499
20.6893
19.1886
17.5419
15.744
13.7908
11.6815
9.41518
6.9916
4.41252
1.68219
-1.19317
-4.20528
-7.34372
-10.5959
-13.9473
-17.3811
-20.8789
-24.4207
-27.9853
-31.5509
-35.0953
-38.5967
-42.0342
-45.3883
-48.6412
-51.7776
-54.7848
-57.6532
-60.3762
-62.9507
-65.377
-67.6585
-69.8013
-71.814
-73.7077
-75.4949
-77.1898
-78.8059
-80.3609
-81.8737
-83.3585
-84.8309
-86.3066
-87.8014
-89.3306
-90.9089
-92.5499
-94.2664
-96.071
-97.9767
-99.9968
-102.146
-104.441
-106.902
-109.484
-112.542
-115.311
-119.236
-122.18
-127.585
-130.101
-139.005
0.133406
0.0825526
0.0760259
0.0559531
0.0489606
0.0353197
0.0298006
0.0214191
0.0150185
0.00870975
0.00262891
31.6262
31.6222
31.6179
31.6279
31.6669
31.7208
31.7811
31.849
31.9227
32.0006
32.081
32.1621
32.2422
32.3191
32.3906
32.4544
32.5076
32.5471
32.5695
32.5711
32.5477
32.4949
32.4078
32.2813
32.1098
31.8876
31.6082
31.2651
30.8513
30.3593
29.7815
29.1098
28.336
27.4515
26.4478
25.3162
24.0482
22.6353
21.0698
19.3445
17.4531
15.3905
13.1537
10.743
8.15702
5.39667
2.46602
-0.628665
-3.8787
-7.27282
-10.7972
-14.4354
-18.1687
-21.9758
-25.8338
-29.7181
-33.6031
-37.463
-41.2721
-45.0058
-48.6411
-52.157
-55.5356
-58.7619
-61.8247
-64.717
-67.4352
-69.9801
-72.3559
-74.5704
-76.6337
-78.5587
-80.36
-82.0539
-83.655
-85.1843
-86.6619
-88.1048
-89.5298
-90.9529
-92.3902
-93.8571
-95.368
-96.9365
-98.5744
-100.293
-102.103
-104.016
-106.041
-108.193
-110.484
-112.863
-115.667
-118.173
-121.672
-124.264
-128.934
-131.092
-138.555
0.0963896
0.0681267
0.0658469
0.0508161
0.044856
0.0325701
0.0278506
0.0200082
0.0141745
0.00824316
0.00248696
33.2854
33.2817
33.2798
33.2958
33.3424
33.4042
33.4742
33.5532
33.6396
33.7317
33.8278
33.9261
34.0248
34.1217
34.2147
34.3011
34.3781
34.4424
34.4905
34.5185
34.522
34.4964
34.4366
34.3372
34.1923
33.9956
33.7403
33.4193
33.0248
32.549
31.9832
31.3186
30.546
29.6559
28.6385
27.484
26.1825
24.7243
23.1002
21.3017
19.321
17.1517
14.7886
12.233
9.48129
6.53449
3.39579
0.0713545
-3.42982
-7.09559
-10.9108
-14.8571
-18.9133
-23.0551
-27.256
-31.4875
-35.7198
-39.9225
-44.0656
-48.12
-52.0583
-55.8561
-59.4921
-62.9488
-66.2134
-69.2779
-72.1387
-74.797
-77.2586
-79.5329
-81.6322
-83.5717
-85.3685
-87.0387
-88.6061
-90.0896
-91.5126
-92.8945
-94.2537
-95.6073
-96.9714
-98.3613
-99.7912
-101.274
-102.82
-104.44
-106.142
-107.934
-109.822
-111.814
-113.918
-116.078
-118.606
-120.796
-123.85
-126.017
-129.917
-131.651
-137.457
0.0749245
0.0579083
0.0538461
0.0443754
0.039135
0.0288421
0.0248463
0.0181773
0.0129773
0.00758528
0.00228231
34.932
34.9289
34.9297
34.9523
35.0067
35.077
35.1574
35.2486
35.3489
35.4565
35.5699
35.6873
35.8067
35.9261
36.0431
36.155
36.2589
36.3515
36.429
36.4874
36.5223
36.5288
36.5016
36.4349
36.3226
36.1579
35.9336
35.642
35.2748
34.8232
34.2779
33.6292
32.8668
31.9802
30.9582
29.7897
28.4634
26.9681
25.293
23.4278
21.3633
19.0912
16.6051
13.9025
10.9826
7.8444
4.48957
0.924133
-2.84265
-6.79787
-10.9249
-15.2033
-19.609
-24.1146
-28.6892
-33.3
-37.912
-42.4897
-46.9976
-51.4013
-55.6685
-59.7702
-63.6815
-67.3819
-70.8566
-74.0964
-77.098
-79.8634
-82.4
-84.7194
-86.837
-88.7708
-90.541
-92.1658
-93.6732
-95.0875
-96.4327
-97.7312
-99.0036
-100.268
-101.542
-102.839
-104.174
-105.559
-107.003
-108.514
-110.099
-111.761
-113.504
-115.329
-117.238
-119.168
-121.408
-123.26
-125.859
-127.559
-130.664
-131.903
-136.009
0.0572375
0.0485305
0.0414962
0.0371414
0.0317141
0.025773
0.0215239
0.0162035
0.0115778
0.00679282
0.00203279
36.5644
36.5618
36.5656
36.5952
36.6577
36.7372
36.8289
36.9333
37.0486
37.1732
37.3056
37.4439
37.5862
37.7304
37.874
38.0143
38.1484
38.2727
38.3835
38.4766
38.5475
38.5911
38.602
38.574
38.5008
38.3751
38.1893
37.935
37.6034
37.185
36.6696
36.0465
35.3044
34.4314
33.4151
32.2429
30.9019
29.3791
27.6619
25.7382
23.5967
21.2273
18.6214
15.7729
12.6822
9.3473
5.76792
1.94946
-2.09872
-6.36301
-10.8253
-15.463
-20.2489
-25.1515
-30.1358
-35.1632
-40.1931
-45.1834
-50.0923
-54.8792
-59.5057
-63.9373
-68.1448
-72.1043
-75.7984
-79.2169
-82.3564
-85.2204
-87.8184
-90.1653
-92.2801
-94.1845
-95.8976
-97.454
-98.876
-100.194
-101.436
-102.627
-103.789
-104.943
-106.107
-107.296
-108.522
-109.798
-111.13
-112.525
-113.986
-115.515
-117.11
-118.768
-120.48
-122.186
-124.136
-125.654
-127.802
-129.014
-131.364
-132.021
-134.43
0.0313784
0.0396212
0.0268299
0.0302838
0.024075
0.0220866
0.0180966
0.0141298
0.0101372
0.00596757
0.00175079
38.1803
38.1784
38.1854
38.2224
38.2936
38.3828
38.4865
38.6051
38.7366
38.8797
39.0326
39.1938
39.3611
39.5325
39.7054
39.8771
40.0445
40.2041
40.3521
40.4843
40.596
40.682
40.7367
40.7537
40.7264
40.647
40.5076
40.2993
40.0124
39.6369
39.1616
38.5748
37.8641
37.0162
36.0173
34.8532
33.5091
31.9701
30.2217
28.2494
26.0396
23.5796
20.8584
17.8671
14.6036
11.0665
7.25424
3.17016
-1.1765
-5.77151
-10.5954
-15.6231
-20.8241
-26.1626
-31.5981
-37.0859
-42.5783
-48.0259
-53.379
-58.589
-63.6108
-68.4032
-72.9313
-77.1671
-81.0907
-84.6905
-87.9636
-90.9152
-93.5578
-95.9103
-97.9964
-99.8433
-101.475
-102.927
-104.233
-105.426
-106.537
-107.594
-108.623
-109.645
-110.681
-111.744
-112.848
-114.003
-115.215
-116.489
-117.824
-119.219
-120.669
-122.163
-123.689
-125.185
-126.856
-128.072
-129.797
-130.486
-132.274
-132.195
-133.115
0.00285932
0.0310493
0.0110275
0.0239929
0.0165273
0.0184813
0.0146906
0.0121136
0.00879188
0.00519466
0.00146598
39.7776
39.7765
39.787
39.8317
39.9119
40.0114
40.1281
40.2617
40.4107
40.5736
40.7488
40.9346
41.1291
41.33
41.5348
41.7407
41.9448
42.1433
42.3326
42.5083
42.6657
42.7995
42.904
42.9726
42.9983
42.9731
42.8885
42.7351
42.5029
42.1807
41.7566
41.2179
40.5509
39.7409
38.7726
37.6299
36.2962
34.7545
32.9877
30.9787
28.7112
26.1695
23.3398
20.2099
16.7728
13.029
8.97543
4.61258
-0.0508524
-5.0004
-10.2152
-15.6679
-21.3241
-27.1434
-33.0788
-39.0784
-45.0863
-51.0438
-56.8921
-62.5734
-68.0331
-73.2223
-78.0994
-82.6315
-86.7953
-90.5782
-93.9779
-97.0023
-99.6679
-101.999
-104.025
-105.772
-107.288
-108.604
-109.761
-110.796
-111.746
-112.642
-113.512
-114.382
-115.269
-116.192
-117.161
-118.186
-119.272
-120.42
-121.629
-122.894
-124.205
-125.548
-126.902
-128.215
-129.63
-130.607
-131.969
-132.261
-133.351
-132.846
-132.367
-0.035736
0.00920027
-0.00272644
0.0168086
0.0106578
0.0150468
0.0119402
0.0104897
0.00768464
0.00454517
0.00119752
41.3538
41.3535
41.3678
41.4205
41.5102
41.6208
41.751
41.9007
42.0683
42.2524
42.4515
42.6638
42.8875
43.1202
43.3595
43.6026
43.8465
44.0876
44.3222
44.5459
44.7541
44.9413
45.1017
45.2286
45.3147
45.3518
45.3309
45.2422
45.075
44.8173
44.4566
43.9788
43.369
42.6111
41.6882
40.5823
39.2746
37.7456
35.9755
33.9443
31.6322
29.0202
26.0907
22.8281
19.2197
15.2659
10.9622
6.30726
1.30752
-4.02265
-9.66137
-15.5787
-21.7364
-28.0883
-34.5805
-41.1525
-47.7385
-54.2691
-60.6738
-66.8833
-72.8321
-78.4612
-83.7206
-88.5713
-92.9868
-96.953
-100.469
-103.547
-106.207
-108.482
-110.41
-112.022
-113.371
-114.506
-115.471
-116.311
-117.065
-117.769
-118.455
-119.148
-119.87
-120.637
-121.461
-122.348
-123.303
-124.325
-125.41
-126.551
-127.735
-128.944
-130.153
-131.316
-132.507
-133.301
-134.384
-134.446
-134.943
-134.142
-132.636
-0.0521431
-0.00916167
-0.0113084
0.00911038
0.00686375
0.0123399
0.0102655
0.00941387
0.00693538
0.0040849
0.000964681
42.9063
42.907
42.9253
42.9863
43.086
43.2081
43.3527
43.5195
43.7068
43.9134
44.1379
44.3785
44.6333
44.9
45.1764
45.4595
45.7464
46.0337
46.3176
46.5939
46.8579
47.1042
47.3268
47.5189
47.6731
47.7809
47.833
47.8192
47.728
47.547
47.2624
46.8594
46.3217
45.6318
44.7709
43.719
42.4551
40.9568
39.2013
37.1651
34.8245
32.1563
29.1388
25.752
21.979
17.811
13.2496
8.28949
2.93283
-2.80652
-8.9059
-15.333
-22.0452
-28.9903
-36.1061
-43.3222
-50.561
-57.74
-64.7747
-71.5813
-78.0805
-84.2008
-89.8819
-95.0773
-99.7563
-103.904
-107.522
-110.626
-113.246
-115.421
-117.188
-118.617
-119.751
-120.652
-121.376
-121.974
-122.492
-122.969
-123.441
-123.934
-124.471
-125.068
-125.736
-126.48
-127.302
-128.2
-129.168
-130.196
-131.269
-132.367
-133.463
-134.515
-135.548
-136.254
-137.082
-137.118
-137.188
-136.351
-134.109
-0.0798533
0.00094396
-0.0202797
0.00969794
0.00508467
0.0118246
0.00990699
0.00910067
0.00668209
0.00387597
0.000788214
44.4323
44.4341
44.457
44.5264
44.6364
44.7707
44.9304
45.115
45.3232
45.5536
45.8049
46.0754
46.3632
46.6662
46.982
47.3079
47.641
47.978
48.3153
48.6486
48.9735
49.2844
49.5755
49.8399
50.07
50.2572
50.392
50.4636
50.4601
50.3684
50.1739
49.8608
49.4113
48.8067
48.0264
47.0481
45.8481
44.4013
42.6813
40.6604
38.3106
35.6042
32.5141
29.015
25.0848
20.7048
15.8805
10.6002
4.86493
-1.31456
-7.91557
-14.9036
-22.2315
-29.8402
-37.6586
-45.6039
-53.5847
-61.5027
-69.256
-76.7431
-83.8669
-90.5403
-96.6897
-102.26
-107.214
-111.538
-115.237
-118.333
-120.865
-122.884
-124.442
-125.61
-126.461
-127.065
-127.488
-127.79
-128.024
-128.234
-128.459
-128.726
-129.058
-129.471
-129.973
-130.569
-131.259
-132.037
-132.897
-133.825
-134.807
-135.821
-136.84
-137.822
-138.758
-139.492
-140.155
-140.288
-140.153
-139.501
-137.049
-0.138291
0.00830872
-0.027947
0.0156087
0.00548841
0.0137568
0.0108475
0.00963123
0.0069499
0.00393216
0.000676897
45.9288
45.9319
45.9596
46.0377
46.1584
46.3054
46.4809
46.6844
46.9144
47.1698
47.4492
47.7512
48.0738
48.415
48.7726
49.1439
49.5262
49.9163
50.3108
50.7057
51.0963
51.4776
51.8435
52.1872
52.5012
52.7767
53.004
53.1719
53.2683
53.2793
53.1896
52.9823
52.6388
52.1385
51.4591
50.5762
49.4632
48.0916
46.431
44.4496
42.1143
39.3917
36.2487
32.6538
28.5782
23.997
18.8983
13.2857
7.15023
0.497427
-6.65068
-14.2575
-22.2718
-30.6269
-39.2406
-48.0166
-56.8466
-65.6132
-74.193
-82.4622
-90.3014
-97.6024
-104.276
-110.253
-115.495
-119.986
-123.736
-126.777
-129.161
-130.942
-132.214
-133.047
-133.536
-133.767
-133.819
-133.763
-133.659
-133.557
-133.498
-133.51
-133.617
-133.831
-134.16
-134.605
-135.163
-135.828
-136.59
-137.434
-138.345
-139.304
-140.28
-141.238
-142.176
-142.969
-143.638
-143.946
-143.884
-143.578
-141.362
-0.267948
0.0371014
-0.0249951
0.0290601
0.00914829
0.0181959
0.0129351
0.0109405
0.00766714
0.00421751
0.000627261
47.3925
47.3972
47.4302
47.5173
47.6487
47.8091
48.0012
48.2242
48.477
48.7584
49.0673
49.4021
49.7612
50.1425
50.5439
50.9631
51.3974
51.844
52.2995
52.7601
53.2214
53.6785
54.1254
54.5555
54.9613
55.334
55.6638
55.9394
56.1481
56.2757
56.3063
56.2221
56.0033
55.6281
55.0722
54.3087
53.3083
52.0388
50.4657
48.5521
46.2594
43.5477
40.3771
36.7082
32.5039
27.7308
22.3607
16.4048
9.84378
2.68165
-5.06357
-13.3552
-22.1374
-31.3353
-40.8545
-50.5826
-60.3914
-70.1398
-79.6787
-88.8553
-97.521
-105.541
-112.804
-119.228
-124.767
-129.406
-133.166
-136.089
-138.243
-139.71
-140.583
-140.979
-141.009
-140.777
-140.377
-139.892
-139.39
-138.927
-138.545
-138.273
-138.133
-138.135
-138.283
-138.575
-139.004
-139.562
-140.236
-141.012
-141.874
-142.805
-143.773
-144.76
-145.753
-146.673
-147.487
-148.08
-148.327
-148.531
-145.195
0.0771858
0.0868986
-0.00272746
0.0453143
0.0155321
0.0239347
0.0157499
0.0127892
0.00867302
0.00464759
0.000619588
48.8206
48.8272
48.8656
48.9617
49.1042
49.2786
49.4878
49.7311
50.0075
50.3159
50.6553
51.0243
51.4212
51.8442
52.2915
52.7609
53.2499
53.756
54.276
54.8064
55.343
55.8811
56.4151
56.9386
57.444
57.9228
58.3651
58.7596
59.0935
59.3522
59.5192
59.5762
59.5023
59.2744
58.8663
58.2489
57.3897
56.2528
54.7991
52.9864
50.7698
48.1022
44.9354
41.2209
36.9113
31.963
26.3376
20.0171
13.0076
5.29984
-3.09782
-12.1484
-21.7926
-31.9467
-42.5026
-53.3291
-64.2738
-75.1676
-85.8288
-96.0686
-105.7
-114.551
-122.482
-129.394
-135.236
-139.996
-143.707
-146.43
-148.239
-149.268
-149.622
-149.458
-148.912
-148.109
-147.162
-146.167
-145.2
-144.322
-143.576
-142.992
-142.585
-142.363
-142.324
-142.462
-142.767
-143.226
-143.825
-144.547
-145.378
-146.304
-147.296
-148.35
-149.452
-150.557
-151.626
-152.62
-153.384
-154.461
-140.117
0.247295
0.0957424
0.0748686
0.0612879
0.030729
0.0309662
0.0192207
0.0148823
0.00975373
0.00510916
0.000625906
50.2099
50.2186
50.2629
50.368
50.5217
50.7105
50.9373
51.2015
51.5022
51.8384
52.2092
52.6133
53.0494
53.5157
54.0106
54.5322
55.0783
55.6467
56.2344
56.8384
57.4547
58.0789
58.7057
59.3291
59.9417
60.5353
61.1001
61.6249
62.0968
62.5012
62.8214
63.0384
63.1307
63.0738
62.8399
62.3975
61.7111
60.7409
59.443
57.7696
55.6688
53.0854
49.9615
46.2376
41.8543
36.7545
30.8864
24.2062
16.7231
8.42627
-0.684468
-10.5782
-21.1934
-32.4377
-44.187
-56.2885
-68.5613
-80.8018
-92.788
-104.287
-115.06
-124.883
-133.576
-141.022
-147.164
-152