/*--------------------------------*- C++ -*----------------------------------*\
| =========                 |                                                 |
| \\      /  F ield         | OpenFOAM: The Open Source CFD Toolbox           |
|  \\    /   O peration     | Version:  v2106                                 |
|   \\  /    A nd           | Website:  www.openfoam.com                      |
|    \\/     M anipulation  |                                                 |
\*---------------------------------------------------------------------------*/
FoamFile
{
    version     2.0;
    format      ascii;
    arch        "LSB;label=32;scalar=64";
    class       surfaceScalarField;
    location    "1.2";
    object      phi;
}
// * * * * * * * * * * * * * * * * * * * * * * * * * * * * * * * * * * * * * //

dimensions      [0 3 -1 0 0 0 0];

oriented        oriented;

internalField   nonuniform List<scalar> 
59425
(
-1.13905e-08
-6.80071e-06
-2.26321e-08
-6.85933e-06
-3.33286e-08
-6.8696e-06
-4.34706e-08
-6.87898e-06
-5.32993e-08
-6.89089e-06
-6.29825e-08
-6.90658e-06
-7.25826e-08
-6.92681e-06
-8.20822e-08
-6.95195e-06
-9.14087e-08
-6.98199e-06
-1.00439e-07
-7.01668e-06
-1.09e-07
-7.05576e-06
-1.16889e-07
-7.09906e-06
-1.23998e-07
-7.1462e-06
-1.30393e-07
-7.19679e-06
-1.36176e-07
-7.25066e-06
-1.41456e-07
-7.30746e-06
-1.46349e-07
-7.36678e-06
-1.50923e-07
-7.42825e-06
-1.55213e-07
-7.49146e-06
-1.59239e-07
-7.55617e-06
-1.63025e-07
-7.62224e-06
-1.6656e-07
-7.68928e-06
-1.69798e-07
-7.75682e-06
-1.72679e-07
-7.82443e-06
-1.75151e-07
-7.89166e-06
-1.77169e-07
-7.95804e-06
-1.78688e-07
-8.02309e-06
-1.79665e-07
-8.08629e-06
-1.80049e-07
-8.14712e-06
-1.79762e-07
-8.20503e-06
-1.78717e-07
-8.2594e-06
-1.76834e-07
-8.30959e-06
-1.74011e-07
-8.35496e-06
-1.70162e-07
-8.39484e-06
-1.65235e-07
-8.42854e-06
-1.59173e-07
-8.45543e-06
-1.51933e-07
-8.47487e-06
-1.43484e-07
-8.48621e-06
-1.33826e-07
-8.48883e-06
-1.22994e-07
-8.48209e-06
-1.11097e-07
-8.46543e-06
-9.8289e-08
-8.43831e-06
-8.47379e-08
-8.39999e-06
-7.07239e-08
-8.34989e-06
-5.63011e-08
-8.28769e-06
-4.13842e-08
-8.21284e-06
-2.59639e-08
-8.12505e-06
-1.00902e-08
-8.02406e-06
6.15731e-09
-7.90966e-06
2.26864e-08
-7.78175e-06
3.9381e-08
-7.64031e-06
5.61177e-08
-7.48539e-06
7.2763e-08
-7.31717e-06
8.91768e-08
-7.13589e-06
1.05218e-07
-6.94192e-06
1.2074e-07
-6.7357e-06
1.356e-07
-6.51776e-06
1.49656e-07
-6.28876e-06
1.62775e-07
-6.04941e-06
1.74835e-07
-5.80053e-06
1.85724e-07
-5.54299e-06
1.95345e-07
-5.27775e-06
2.03613e-07
-5.00583e-06
2.10456e-07
-4.72831e-06
2.15818e-07
-4.44627e-06
2.19656e-07
-4.16085e-06
2.21943e-07
-3.87315e-06
2.22666e-07
-3.5843e-06
2.21822e-07
-3.29542e-06
2.19411e-07
-3.00762e-06
2.1543e-07
-2.72199e-06
2.09874e-07
-2.43961e-06
2.02736e-07
-2.1615e-06
1.94008e-07
-1.88869e-06
1.83686e-07
-1.62209e-06
1.71788e-07
-1.36252e-06
1.58365e-07
-1.11061e-06
1.43527e-07
-8.66838e-07
1.27439e-07
-6.31581e-07
1.10287e-07
-4.05249e-07
9.22711e-08
-1.88247e-07
7.63878e-08
1.67941e-08
6.29444e-08
2.13733e-07
5.23976e-08
3.99871e-07
4.41236e-08
5.72941e-07
3.63371e-08
7.31919e-07
2.78162e-08
8.76211e-07
1.76599e-08
1.00711e-06
6.26541e-09
1.12637e-06
-4.2257e-09
1.23621e-06
-9.02009e-09
1.33776e-06
-2.85791e-10
1.43141e-06
2.37873e-08
1.51594e-06
9.38104e-08
1.59193e-06
1.72199e-07
1.64211e-06
3.03893e-07
1.67236e-06
3.45234e-07
1.66875e-06
3.25478e-07
1.34416e-06
9.05265e-07
1.11036e-06
-3.62173e-07
-8.30877e-06
-8.47933e-07
-8.45365e-06
-5.29643e-06
-2.51331e-05
-1.36886e-05
-2.74383e-05
-1.66523e-05
-1.87408e-05
-1.96636e-05
-1.68606e-05
-2.07007e-05
-1.17874e-05
-2.13874e-05
-8.73858e-06
-2.07401e-05
-4.88678e-06
-1.99084e-05
-2.47612e-06
-8.78144e-07
-1.30522e-08
-6.78766e-06
-2.60003e-08
-6.84638e-06
-3.85397e-08
-6.85706e-06
-5.07041e-08
-6.86681e-06
-6.26e-08
-6.87899e-06
-7.43098e-08
-6.89487e-06
-8.58421e-08
-6.91528e-06
-9.71419e-08
-6.94065e-06
-1.08104e-07
-6.97103e-06
-1.18563e-07
-7.00622e-06
-1.28279e-07
-7.04604e-06
-1.37119e-07
-7.09022e-06
-1.4509e-07
-7.13823e-06
-1.5236e-07
-7.18952e-06
-1.59108e-07
-7.24392e-06
-1.65417e-07
-7.30115e-06
-1.71326e-07
-7.36087e-06
-1.76851e-07
-7.42272e-06
-1.81973e-07
-7.48633e-06
-1.8666e-07
-7.55148e-06
-1.90884e-07
-7.61801e-06
-1.9459e-07
-7.68557e-06
-1.97696e-07
-7.75372e-06
-2.00123e-07
-7.822e-06
-2.01801e-07
-7.88998e-06
-2.0267e-07
-7.95717e-06
-2.02674e-07
-8.02308e-06
-2.01758e-07
-8.08721e-06
-1.9987e-07
-8.14901e-06
-1.96954e-07
-8.20794e-06
-1.92943e-07
-8.26341e-06
-1.87731e-07
-8.3148e-06
-1.81171e-07
-8.36153e-06
-1.7314e-07
-8.40288e-06
-1.63546e-07
-8.43814e-06
-1.52329e-07
-8.46665e-06
-1.39472e-07
-8.48773e-06
-1.24964e-07
-8.50072e-06
-1.08822e-07
-8.50497e-06
-9.11134e-08
-8.4998e-06
-7.19844e-08
-8.48456e-06
-5.16677e-08
-8.45863e-06
-3.01742e-08
-8.42148e-06
-7.48829e-09
-8.37257e-06
1.63518e-08
-8.31153e-06
4.13337e-08
-8.23783e-06
6.73174e-08
-8.15104e-06
9.41327e-08
-8.05087e-06
1.21596e-07
-7.93712e-06
1.49503e-07
-7.80966e-06
1.77634e-07
-7.66844e-06
2.05754e-07
-7.51351e-06
2.3362e-07
-7.34503e-06
2.60987e-07
-7.16326e-06
2.87604e-07
-6.96854e-06
3.13226e-07
-6.76132e-06
3.37608e-07
-6.54215e-06
3.60516e-07
-6.31167e-06
3.8173e-07
-6.07062e-06
4.01052e-07
-5.81985e-06
4.18299e-07
-5.56024e-06
4.33313e-07
-5.29276e-06
4.45959e-07
-5.01848e-06
4.56125e-07
-4.73847e-06
4.63727e-07
-4.45388e-06
4.68709e-07
-4.16583e-06
4.71043e-07
-3.87548e-06
4.70733e-07
-3.58399e-06
4.67808e-07
-3.29249e-06
4.62324e-07
-3.00213e-06
4.54354e-07
-2.71402e-06
4.4399e-07
-2.42924e-06
4.31334e-07
-2.14885e-06
4.1651e-07
-1.87386e-06
3.99668e-07
-1.60525e-06
3.80994e-07
-1.34384e-06
3.60736e-07
-1.09035e-06
3.39245e-07
-8.45346e-07
3.16993e-07
-6.09328e-07
2.94579e-07
-3.82835e-07
2.72847e-07
-1.66514e-07
2.50229e-07
3.94133e-08
2.29088e-07
2.34875e-07
2.09834e-07
4.19125e-07
1.91527e-07
5.91248e-07
1.73061e-07
7.50385e-07
1.53156e-07
8.96114e-07
1.31966e-07
1.0283e-06
1.1004e-07
1.14829e-06
8.94966e-08
1.25675e-06
7.27412e-08
1.35451e-06
6.32468e-08
1.4409e-06
5.9989e-08
1.5192e-06
7.8615e-08
1.5733e-06
9.45873e-08
1.62612e-06
1.66845e-07
1.60009e-06
1.9932e-07
1.63628e-06
3.81122e-07
1.16234e-06
9.95027e-07
4.96459e-07
-2.72387e-07
-7.04136e-06
-1.15357e-06
-7.57247e-06
-4.98685e-06
-2.12999e-05
-1.18337e-05
-2.05915e-05
-1.45066e-05
-1.60679e-05
-1.70774e-05
-1.42897e-05
-1.80927e-05
-1.07721e-05
-1.87055e-05
-8.12576e-06
-1.83354e-05
-5.25691e-06
-1.77594e-05
-3.05211e-06
-1.32113e-06
-1.60548e-08
-6.77161e-06
-3.20191e-08
-6.83042e-06
-4.76189e-08
-6.84146e-06
-6.2896e-08
-6.85153e-06
-7.79094e-08
-6.86398e-06
-9.26744e-08
-6.8801e-06
-1.07143e-07
-6.90081e-06
-1.21216e-07
-6.92658e-06
-1.3473e-07
-6.95752e-06
-1.47454e-07
-6.9935e-06
-1.59297e-07
-7.0342e-06
-1.7045e-07
-7.07907e-06
-1.81127e-07
-7.12756e-06
-1.91392e-07
-7.17926e-06
-2.01261e-07
-7.23405e-06
-2.10687e-07
-7.29173e-06
-2.1958e-07
-7.35198e-06
-2.2783e-07
-7.41447e-06
-2.35294e-07
-7.47887e-06
-2.41859e-07
-7.54492e-06
-2.47471e-07
-7.6124e-06
-2.52074e-07
-7.68097e-06
-2.55587e-07
-7.7502e-06
-2.57909e-07
-7.81968e-06
-2.58937e-07
-7.88895e-06
-2.58565e-07
-7.95754e-06
-2.56686e-07
-8.02496e-06
-2.53199e-07
-8.09069e-06
-2.48012e-07
-8.15419e-06
-2.41064e-07
-8.21489e-06
-2.32321e-07
-8.27215e-06
-2.21763e-07
-8.32536e-06
-2.09377e-07
-8.37391e-06
-1.95104e-07
-8.41715e-06
-1.78788e-07
-8.45445e-06
-1.60318e-07
-8.48512e-06
-1.39635e-07
-8.50841e-06
-1.16726e-07
-8.52363e-06
-9.16247e-08
-8.53007e-06
-6.44307e-08
-8.527e-06
-3.53082e-08
-8.51368e-06
-4.37194e-09
-8.48957e-06
2.85007e-08
-8.45435e-06
6.33064e-08
-8.40738e-06
9.98306e-08
-8.34805e-06
1.37865e-07
-8.27586e-06
1.7721e-07
-8.19038e-06
2.17624e-07
-8.09128e-06
2.58834e-07
-7.97833e-06
3.00542e-07
-7.85137e-06
3.42433e-07
-7.71033e-06
3.84176e-07
-7.55525e-06
4.25426e-07
-7.38628e-06
4.65835e-07
-7.20367e-06
5.05049e-07
-7.00775e-06
5.4272e-07
-6.79899e-06
5.78506e-07
-6.57793e-06
6.12077e-07
-6.34524e-06
6.4313e-07
-6.10168e-06
6.71382e-07
-5.8481e-06
6.9658e-07
-5.58543e-06
7.18499e-07
-5.31468e-06
7.36949e-07
-5.03693e-06
7.51772e-07
-4.7533e-06
7.62843e-07
-4.46495e-06
7.70081e-07
-4.17307e-06
7.73442e-07
-3.87884e-06
7.72928e-07
-3.58347e-06
7.68582e-07
-3.28815e-06
7.60486e-07
-2.99404e-06
7.48759e-07
-2.7023e-06
7.33555e-07
-2.41404e-06
7.15066e-07
-2.13036e-06
6.93517e-07
-1.85232e-06
6.69181e-07
-1.58091e-06
6.42391e-07
-1.31705e-06
6.13573e-07
-1.06153e-06
5.83265e-07
-8.15039e-07
5.5204e-07
-5.78103e-07
5.20281e-07
-3.51076e-07
4.88002e-07
-1.34236e-07
4.55447e-07
7.19676e-08
4.22891e-07
2.67429e-07
3.90792e-07
4.51222e-07
3.58607e-07
6.23429e-07
3.26353e-07
7.82636e-07
2.93678e-07
9.28785e-07
2.6019e-07
1.06178e-06
2.2674e-07
1.18173e-06
1.94226e-07
1.28926e-06
1.64709e-07
1.38402e-06
1.40633e-07
1.46497e-06
1.26503e-07
1.53332e-06
1.26023e-07
1.57377e-06
1.32269e-07
1.61988e-06
1.56627e-07
1.57574e-06
1.89545e-07
1.60337e-06
1.95994e-07
1.1559e-06
3.82797e-07
3.09652e-07
-4.70724e-07
-6.18784e-06
-1.27445e-06
-6.76875e-06
-4.24609e-06
-1.83282e-05
-8.55435e-06
-1.62832e-05
-1.11782e-05
-1.3444e-05
-1.3527e-05
-1.1941e-05
-1.48733e-05
-9.42584e-06
-1.57443e-05
-7.25475e-06
-1.59876e-05
-5.01356e-06
-1.59624e-05
-3.07739e-06
-1.42341e-06
-1.97682e-08
-6.75184e-06
-3.94939e-08
-6.81069e-06
-5.88641e-08
-6.82208e-06
-7.79036e-08
-6.83249e-06
-9.66434e-08
-6.84524e-06
-1.15057e-07
-6.86169e-06
-1.33052e-07
-6.88281e-06
-1.50481e-07
-6.90915e-06
-1.67125e-07
-6.94087e-06
-1.82929e-07
-6.9777e-06
-1.98182e-07
-7.01895e-06
-2.13044e-07
-7.06421e-06
-2.27482e-07
-7.11312e-06
-2.41348e-07
-7.16539e-06
-2.54569e-07
-7.22083e-06
-2.67076e-07
-7.27922e-06
-2.78761e-07
-7.3403e-06
-2.89485e-07
-7.40375e-06
-2.99085e-07
-7.46927e-06
-3.07427e-07
-7.53658e-06
-3.14422e-07
-7.60541e-06
-3.1998e-07
-7.67541e-06
-3.23989e-07
-7.74619e-06
-3.26328e-07
-7.81734e-06
-3.2687e-07
-7.88841e-06
-3.25484e-07
-7.95893e-06
-3.22038e-07
-8.02841e-06
-3.16402e-07
-8.09633e-06
-3.0845e-07
-8.16215e-06
-2.98062e-07
-8.22528e-06
-2.85109e-07
-8.28511e-06
-2.6947e-07
-8.341e-06
-2.51097e-07
-8.39228e-06
-2.30002e-07
-8.43824e-06
-2.06245e-07
-8.47821e-06
-1.79846e-07
-8.51152e-06
-1.50703e-07
-8.53756e-06
-1.18773e-07
-8.55556e-06
-8.41205e-08
-8.56472e-06
-4.69119e-08
-8.5642e-06
-7.25492e-09
-8.55334e-06
3.49658e-08
-8.53179e-06
7.97195e-08
-8.49911e-06
1.26869e-07
-8.45453e-06
1.76204e-07
-8.39739e-06
2.27465e-07
-8.32712e-06
2.80364e-07
-8.24328e-06
3.34576e-07
-8.1455e-06
3.89737e-07
-8.03349e-06
4.4546e-07
-7.90709e-06
5.01335e-07
-7.7662e-06
5.56932e-07
-7.61085e-06
6.11804e-07
-7.44116e-06
6.65491e-07
-7.25735e-06
7.17531e-07
-7.05979e-06
7.67465e-07
-6.84892e-06
8.14848e-07
-6.62532e-06
8.59262e-07
-6.38965e-06
9.00311e-07
-6.14273e-06
9.37629e-07
-5.88542e-06
9.70888e-07
-5.61869e-06
9.99802e-07
-5.3436e-06
1.02413e-06
-5.06125e-06
1.04367e-06
-4.77284e-06
1.05827e-06
-4.47955e-06
1.06783e-06
-4.18262e-06
1.07229e-06
-3.8833e-06
1.07166e-06
-3.58284e-06
1.06599e-06
-3.28248e-06
1.05539e-06
-2.98344e-06
1.04003e-06
-2.68693e-06
1.02012e-06
-2.39412e-06
9.95919e-07
-2.10616e-06
9.67759e-07
-1.82416e-06
9.36023e-07
-1.54918e-06
9.01178e-07
-1.28221e-06
8.63792e-07
-1.02415e-06
8.245e-07
-7.75746e-07
7.83795e-07
-5.37397e-07
7.41784e-07
-3.09064e-07
6.98339e-07
-9.07887e-08
6.53628e-07
1.16683e-07
6.08036e-07
3.13028e-07
5.61822e-07
4.97444e-07
5.15584e-07
6.69678e-07
4.69212e-07
8.29018e-07
4.22722e-07
9.75289e-07
3.76212e-07
1.1083e-06
3.29714e-07
1.22825e-06
2.84057e-07
1.33493e-06
2.4014e-07
1.42796e-06
1.98615e-07
1.50651e-06
1.62761e-07
1.5692e-06
1.30059e-07
1.60649e-06
9.94649e-08
1.65048e-06
7.68145e-08
1.59841e-06
5.01854e-08
1.62998e-06
8.00135e-08
1.12608e-06
1.90399e-07
1.99266e-07
-7.64397e-07
-5.23304e-06
-1.4434e-06
-6.08975e-06
-3.8941e-06
-1.58775e-05
-7.24204e-06
-1.29353e-05
-9.50948e-06
-1.11766e-05
-1.14741e-05
-9.9764e-06
-1.27297e-05
-8.17022e-06
-1.35637e-05
-6.42078e-06
-1.39563e-05
-4.62095e-06
-1.40878e-05
-2.94591e-06
-1.41365e-06
-2.37851e-08
-6.72805e-06
-4.76285e-08
-6.78685e-06
-7.11605e-08
-6.79855e-06
-9.43615e-08
-6.80929e-06
-1.17221e-07
-6.82238e-06
-1.39667e-07
-6.83924e-06
-1.61538e-07
-6.86094e-06
-1.82618e-07
-6.88807e-06
-2.0279e-07
-6.9207e-06
-2.22355e-07
-6.95813e-06
-2.41479e-07
-6.99982e-06
-2.6009e-07
-7.0456e-06
-2.78058e-07
-7.09515e-06
-2.95245e-07
-7.14821e-06
-3.11542e-07
-7.20453e-06
-3.26846e-07
-7.26392e-06
-3.41032e-07
-7.32611e-06
-3.53956e-07
-7.39083e-06
-3.65454e-07
-7.45777e-06
-3.75378e-07
-7.52665e-06
-3.83602e-07
-7.59718e-06
-3.89996e-07
-7.66901e-06
-3.94419e-07
-7.74177e-06
-3.96723e-07
-7.81503e-06
-3.96754e-07
-7.88837e-06
-3.94357e-07
-7.96132e-06
-3.89375e-07
-8.03339e-06
-3.81654e-07
-8.10405e-06
-3.71044e-07
-8.17276e-06
-3.574e-07
-8.23892e-06
-3.40582e-07
-8.30193e-06
-3.20456e-07
-8.36113e-06
-2.96907e-07
-8.41583e-06
-2.69826e-07
-8.46533e-06
-2.39187e-07
-8.50885e-06
-2.05048e-07
-8.54566e-06
-1.67517e-07
-8.57509e-06
-1.26701e-07
-8.59638e-06
-8.26495e-08
-8.60878e-06
-3.53228e-08
-8.61153e-06
1.53518e-08
-8.60401e-06
6.93172e-08
-8.58576e-06
1.26341e-07
-8.55613e-06
1.86212e-07
-8.5144e-06
2.48691e-07
-8.45986e-06
3.13484e-07
-8.39191e-06
3.80246e-07
-8.31004e-06
4.48576e-07
-8.21382e-06
5.18031e-07
-8.10295e-06
5.88133e-07
-7.97719e-06
6.58376e-07
-7.83645e-06
7.28222e-07
-7.6807e-06
7.97113e-07
-7.51005e-06
8.64473e-07
-7.32471e-06
9.2972e-07
-7.12504e-06
9.92279e-07
-6.91148e-06
1.0516e-06
-6.68464e-06
1.10716e-06
-6.44521e-06
1.15847e-06
-6.19403e-06
1.20506e-06
-5.93201e-06
1.24652e-06
-5.66016e-06
1.28252e-06
-5.37959e-06
1.31275e-06
-5.09149e-06
1.33699e-06
-4.79707e-06
1.35506e-06
-4.49762e-06
1.36684e-06
-4.19441e-06
1.37229e-06
-3.88876e-06
1.37142e-06
-3.58197e-06
1.36431e-06
-3.27536e-06
1.3511e-06
-2.97023e-06
1.332e-06
-2.66783e-06
1.30728e-06
-2.36941e-06
1.2773e-06
-2.07618e-06
1.24247e-06
-1.78932e-06
1.20327e-06
-1.50998e-06
1.16029e-06
-1.23922e-06
1.11416e-06
-9.78022e-07
1.06549e-06
-7.27068e-07
1.01456e-06
-4.86464e-07
9.61345e-07
-2.55851e-07
9.05924e-07
-3.53653e-08
8.48632e-07
1.73977e-07
7.90197e-07
3.71465e-07
7.3119e-07
5.56453e-07
6.71868e-07
7.29e-07
6.12505e-07
8.88382e-07
5.53002e-07
1.03479e-06
4.93418e-07
1.16789e-06
4.34018e-07
1.28765e-06
3.74925e-07
1.39402e-06
3.16404e-07
1.48647e-06
2.58756e-07
1.56415e-06
2.03128e-07
1.62482e-06
1.4495e-07
1.66466e-06
9.16255e-08
1.70379e-06
3.87479e-08
1.65128e-06
-1.68861e-08
1.68561e-06
-5.84901e-08
1.16768e-06
-9.26659e-08
2.33444e-07
-1.1508e-06
-4.17491e-06
-1.82451e-06
-5.41604e-06
-3.78374e-06
-1.39183e-05
-6.14355e-06
-1.05755e-05
-8.04812e-06
-9.27202e-06
-9.68279e-06
-8.34174e-06
-1.08673e-05
-6.98572e-06
-1.16933e-05
-5.59481e-06
-1.21871e-05
-4.12717e-06
-1.24383e-05
-2.69464e-06
-1.31853e-06
-2.80173e-08
-6.70003e-06
-5.61881e-08
-6.75867e-06
-8.40964e-08
-6.77064e-06
-1.11684e-07
-6.7817e-06
-1.38897e-07
-6.79516e-06
-1.65584e-07
-6.81255e-06
-1.91455e-07
-6.83507e-06
-2.16255e-07
-6.86327e-06
-2.4025e-07
-6.89671e-06
-2.63755e-07
-6.93463e-06
-2.86685e-07
-6.9769e-06
-3.08906e-07
-7.02338e-06
-3.3029e-07
-7.07377e-06
-3.50699e-07
-7.1278e-06
-3.69998e-07
-7.18523e-06
-3.88057e-07
-7.24586e-06
-4.04732e-07
-7.30944e-06
-4.19864e-07
-7.3757e-06
-4.33279e-07
-7.44435e-06
-4.44809e-07
-7.51512e-06
-4.54292e-07
-7.5877e-06
-4.61568e-07
-7.66174e-06
-4.66466e-07
-7.73687e-06
-4.68807e-07
-7.81269e-06
-4.6841e-07
-7.88877e-06
-4.65093e-07
-7.96464e-06
-4.58672e-07
-8.03981e-06
-4.48966e-07
-8.11376e-06
-4.35801e-07
-8.18592e-06
-4.19009e-07
-8.25571e-06
-3.98434e-07
-8.3225e-06
-3.73933e-07
-8.38563e-06
-3.45382e-07
-8.44439e-06
-3.12672e-07
-8.49804e-06
-2.75714e-07
-8.54581e-06
-2.34463e-07
-8.58691e-06
-1.88972e-07
-8.62058e-06
-1.3932e-07
-8.64603e-06
-8.55615e-08
-8.66254e-06
-2.77006e-08
-8.66939e-06
3.42498e-08
-8.66596e-06
1.0011e-07
-8.65162e-06
1.69624e-07
-8.62565e-06
2.42527e-07
-8.5873e-06
3.18521e-07
-8.53586e-06
3.97258e-07
-8.47065e-06
4.7833e-07
-8.39111e-06
5.61265e-07
-8.29676e-06
6.4554e-07
-8.18722e-06
7.30578e-07
-8.06223e-06
8.15763e-07
-7.92163e-06
9.00443e-07
-7.76538e-06
9.8394e-07
-7.59354e-06
1.06556e-06
-7.40634e-06
1.1446e-06
-7.20408e-06
1.22037e-06
-6.98725e-06
1.29219e-06
-6.75646e-06
1.35943e-06
-6.51245e-06
1.42147e-06
-6.25607e-06
1.47774e-06
-5.98828e-06
1.52775e-06
-5.71017e-06
1.57107e-06
-5.42292e-06
1.60736e-06
-5.12778e-06
1.63636e-06
-4.82607e-06
1.65788e-06
-4.51913e-06
1.67181e-06
-4.20834e-06
1.67812e-06
-3.89506e-06
1.67683e-06
-3.58069e-06
1.66807e-06
-3.2666e-06
1.65202e-06
-2.95417e-06
1.62893e-06
-2.64475e-06
1.59917e-06
-2.33964e-06
1.56314e-06
-2.04015e-06
1.52135e-06
-1.74753e-06
1.47436e-06
-1.46299e-06
1.42282e-06
-1.18769e-06
1.36738e-06
-9.2258e-07
1.30852e-06
-6.68208e-07
1.24646e-06
-4.24402e-07
1.18137e-06
-1.90765e-07
1.11377e-06
3.22287e-08
1.04421e-06
2.43527e-07
9.73352e-07
4.42312e-07
9.01553e-07
6.28239e-07
8.29392e-07
8.01147e-07
7.57024e-07
9.60734e-07
6.84526e-07
1.10727e-06
6.11931e-07
1.24046e-06
5.39126e-07
1.36043e-06
4.66071e-07
1.46705e-06
3.92704e-07
1.55982e-06
3.18482e-07
1.63836e-06
2.42476e-07
1.70081e-06
1.63271e-07
1.74385e-06
7.96539e-08
1.78741e-06
-1.0518e-08
1.74146e-06
-8.90533e-08
1.76415e-06
-1.84204e-07
1.26284e-06
-2.88173e-07
3.37412e-07
-1.4678e-06
-2.99528e-06
-2.10835e-06
-4.7755e-06
-3.71357e-06
-1.23131e-05
-5.50028e-06
-8.78877e-06
-7.056e-06
-7.71631e-06
-8.38773e-06
-7.01001e-06
-9.41362e-06
-5.95984e-06
-1.01618e-05
-4.84665e-06
-1.06546e-05
-3.63432e-06
-1.09398e-05
-2.40946e-06
-1.19076e-06
-3.24127e-08
-6.66762e-06
-6.50591e-08
-6.72603e-06
-9.74823e-08
-6.73822e-06
-1.29595e-07
-6.74959e-06
-1.61288e-07
-6.76347e-06
-1.92267e-07
-6.78158e-06
-2.22039e-07
-6.8053e-06
-2.50656e-07
-6.83466e-06
-2.78746e-07
-6.86862e-06
-3.06276e-07
-6.9071e-06
-3.33035e-07
-6.95014e-06
-3.58908e-07
-6.99751e-06
-3.83768e-07
-7.04891e-06
-4.07467e-07
-7.1041e-06
-4.29852e-07
-7.16285e-06
-4.50768e-07
-7.22494e-06
-4.7005e-07
-7.29015e-06
-4.87521e-07
-7.35823e-06
-5.02989e-07
-7.42889e-06
-5.16264e-07
-7.50185e-06
-5.27155e-07
-7.5768e-06
-5.35469e-07
-7.65342e-06
-5.41004e-07
-7.73133e-06
-5.43554e-07
-7.81014e-06
-5.42908e-07
-7.88941e-06
-5.38853e-07
-7.96869e-06
-5.31176e-07
-8.04749e-06
-5.19669e-07
-8.12526e-06
-5.04128e-07
-8.20146e-06
-4.84358e-07
-8.27548e-06
-4.60178e-07
-8.34668e-06
-4.31424e-07
-8.41438e-06
-3.9795e-07
-8.47786e-06
-3.59629e-07
-8.53636e-06
-3.16358e-07
-8.58908e-06
-2.68063e-07
-8.63521e-06
-2.14709e-07
-8.67393e-06
-1.56291e-07
-8.70445e-06
-9.28333e-08
-8.72599e-06
-2.43991e-08
-8.73783e-06
4.88828e-08
-8.73925e-06
1.26789e-07
-8.72952e-06
2.09034e-07
-8.70789e-06
2.95295e-07
-8.67357e-06
3.85211e-07
-8.62577e-06
4.78361e-07
-8.5638e-06
5.74264e-07
-8.48701e-06
6.72371e-07
-8.39487e-06
7.72068e-07
-8.28692e-06
8.72677e-07
-8.16284e-06
9.73468e-07
-8.02242e-06
1.07367e-06
-7.86558e-06
1.17248e-06
-7.69236e-06
1.26908e-06
-7.50294e-06
1.36265e-06
-7.29765e-06
1.45236e-06
-7.07696e-06
1.5374e-06
-6.8415e-06
1.617e-06
-6.59205e-06
1.69041e-06
-6.32948e-06
1.75695e-06
-6.05482e-06
1.81603e-06
-5.76924e-06
1.86712e-06
-5.47401e-06
1.90981e-06
-5.17046e-06
1.94377e-06
-4.86003e-06
1.96881e-06
-4.54418e-06
1.98484e-06
-4.22437e-06
1.99186e-06
-3.90207e-06
1.98994e-06
-3.57877e-06
1.97925e-06
-3.25591e-06
1.96003e-06
-2.93495e-06
1.93261e-06
-2.61733e-06
1.8974e-06
-2.30443e-06
1.8549e-06
-1.99764e-06
1.80567e-06
-1.6983e-06
1.75035e-06
-1.40768e-06
1.68963e-06
-1.12696e-06
1.62412e-06
-8.57066e-07
1.55426e-06
-5.98352e-07
1.48042e-06
-3.50558e-07
1.40313e-06
-1.1347e-07
1.32311e-06
1.12248e-07
1.24104e-06
3.256e-07
1.15757e-06
5.25796e-07
1.07299e-06
7.12827e-07
9.87947e-07
8.86197e-07
9.02384e-07
1.04631e-06
8.16874e-07
1.1928e-06
7.30983e-07
1.32637e-06
6.44744e-07
1.44669e-06
5.57899e-07
1.55392e-06
4.69572e-07
1.64816e-06
3.79094e-07
1.72886e-06
2.84696e-07
1.79523e-06
1.87066e-07
1.84149e-06
7.66286e-08
1.89787e-06
-3.10088e-08
1.8491e-06
-1.59799e-07
1.89294e-06
-2.71734e-07
1.37477e-06
-4.7377e-07
5.39447e-07
-1.79342e-06
-1.67563e-06
-2.39593e-06
-4.17299e-06
-3.7052e-06
-1.10038e-05
-5.03712e-06
-7.45687e-06
-6.26986e-06
-6.48357e-06
-7.3452e-06
-5.93468e-06
-8.21587e-06
-5.08918e-06
-8.87781e-06
-4.18471e-06
-9.34191e-06
-3.17023e-06
-9.62807e-06
-2.1233e-06
-1.05693e-06
-3.69389e-08
-6.63068e-06
-7.41788e-08
-6.68878e-06
-1.11221e-07
-6.70117e-06
-1.47956e-07
-6.71285e-06
-1.84165e-07
-6.72726e-06
-2.1931e-07
-6.74643e-06
-2.52973e-07
-6.77164e-06
-2.85875e-07
-6.80176e-06
-3.18244e-07
-6.83625e-06
-3.49844e-07
-6.8755e-06
-3.80526e-07
-6.91946e-06
-4.1017e-07
-6.96787e-06
-4.38633e-07
-7.02045e-06
-4.65755e-07
-7.07698e-06
-4.91366e-07
-7.13724e-06
-5.15291e-07
-7.20102e-06
-5.37343e-07
-7.2681e-06
-5.57325e-07
-7.33824e-06
-5.75025e-07
-7.41118e-06
-5.9023e-07
-7.48664e-06
-6.0272e-07
-7.56431e-06
-6.12271e-07
-7.64387e-06
-6.18652e-07
-7.72495e-06
-6.21624e-07
-7.80717e-06
-6.20947e-07
-7.89009e-06
-6.16374e-07
-7.97326e-06
-6.07663e-07
-8.0562e-06
-5.94572e-07
-8.13835e-06
-5.76864e-07
-8.21917e-06
-5.54313e-07
-8.29803e-06
-5.26708e-07
-8.37429e-06
-4.9385e-07
-8.44724e-06
-4.55562e-07
-8.51615e-06
-4.11687e-07
-8.58023e-06
-3.62091e-07
-8.63867e-06
-3.06669e-07
-8.69063e-06
-2.45345e-07
-8.73526e-06
-1.78087e-07
-8.77171e-06
-1.04906e-07
-8.79918e-06
-2.58859e-08
-8.81685e-06
5.88097e-08
-8.82394e-06
1.48932e-07
-8.81965e-06
2.44162e-07
-8.80312e-06
3.44125e-07
-8.77353e-06
4.48391e-07
-8.73004e-06
5.56465e-07
-8.67188e-06
6.6778e-07
-8.59833e-06
7.81696e-07
-8.50878e-06
8.97497e-07
-8.40272e-06
1.0144e-06
-8.27974e-06
1.13156e-06
-8.13958e-06
1.24807e-06
-7.98209e-06
1.363e-06
-7.80729e-06
1.47539e-06
-7.61533e-06
1.58428e-06
-7.40654e-06
1.68871e-06
-7.18138e-06
1.78772e-06
-6.94051e-06
1.88039e-06
-6.68472e-06
1.96587e-06
-6.41496e-06
2.04336e-06
-6.13231e-06
2.11214e-06
-5.83802e-06
2.17157e-06
-5.53344e-06
2.22113e-06
-5.22002e-06
2.26043e-06
-4.89933e-06
2.28922e-06
-4.57297e-06
2.30741e-06
-4.24255e-06
2.31503e-06
-3.9097e-06
2.31225e-06
-3.57598e-06
2.29929e-06
-3.24296e-06
2.27649e-06
-2.91215e-06
2.24425e-06
-2.58509e-06
2.20307e-06
-2.26325e-06
2.15351e-06
-1.94809e-06
2.09622e-06
-1.64101e-06
2.0319e-06
-1.34336e-06
1.96125e-06
-1.05631e-06
1.8849e-06
-7.80708e-07
1.80336e-06
-5.1681e-07
1.71723e-06
-2.64423e-07
1.62734e-06
-2.35783e-08
1.53457e-06
2.05026e-07
1.43964e-06
4.20536e-07
1.34305e-06
6.22405e-07
1.24548e-06
8.10413e-07
1.14716e-06
9.84528e-07
1.04856e-06
1.14493e-06
9.49627e-07
1.29175e-06
8.50586e-07
1.42543e-06
7.51109e-07
1.54618e-06
6.50579e-07
1.65447e-06
5.48291e-07
1.75046e-06
4.43013e-07
1.83415e-06
3.32498e-07
1.90575e-06
2.18696e-07
1.95529e-06
8.77516e-08
2.02881e-06
-3.96412e-08
1.97649e-06
-1.99863e-07
2.05316e-06
-3.40971e-07
1.51587e-06
-6.25681e-07
8.24157e-07
-2.10038e-06
-2.00934e-07
-2.64934e-06
-3.62404e-06
-3.71167e-06
-9.94152e-06
-4.70642e-06
-6.46213e-06
-5.65879e-06
-5.53121e-06
-6.51467e-06
-5.07881e-06
-7.23075e-06
-4.37312e-06
-7.79519e-06
-3.62027e-06
-8.20756e-06
-2.75787e-06
-8.47296e-06
-1.85791e-06
-9.29684e-07
-4.15767e-08
-6.5891e-06
-8.35122e-08
-6.64685e-06
-1.25263e-07
-6.65942e-06
-1.66702e-07
-6.67141e-06
-2.07417e-07
-6.68654e-06
-2.46618e-07
-6.70723e-06
-2.84605e-07
-6.73365e-06
-3.2204e-07
-6.76432e-06
-3.58759e-07
-6.79954e-06
-3.94552e-07
-6.83971e-06
-4.29295e-07
-6.88472e-06
-4.62854e-07
-6.93431e-06
-4.95072e-07
-6.98824e-06
-5.25776e-07
-7.04628e-06
-5.54781e-07
-7.10824e-06
-5.8189e-07
-7.17391e-06
-6.06899e-07
-7.24309e-06
-6.29587e-07
-7.31556e-06
-6.49724e-07
-7.39105e-06
-6.6707e-07
-7.46929e-06
-6.81378e-07
-7.55e-06
-6.92394e-07
-7.63285e-06
-6.99855e-07
-7.71749e-06
-7.03492e-07
-7.80353e-06
-7.03028e-07
-7.89055e-06
-6.98187e-07
-7.9781e-06
-6.88688e-07
-8.06569e-06
-6.74254e-07
-8.15279e-06
-6.54612e-07
-8.23881e-06
-6.29499e-07
-8.32314e-06
-5.98665e-07
-8.40512e-06
-5.61874e-07
-8.48403e-06
-5.1891e-07
-8.55911e-06
-4.69579e-07
-8.62956e-06
-4.1371e-07
-8.69454e-06
-3.51164e-07
-8.75318e-06
-2.81839e-07
-8.80458e-06
-2.05681e-07
-8.84787e-06
-1.22697e-07
-8.88216e-06
-3.29757e-08
-8.90657e-06
6.3307e-08
-8.92023e-06
1.65889e-07
-8.92223e-06
2.74424e-07
-8.91166e-06
3.88491e-07
-8.8876e-06
5.07597e-07
-8.84915e-06
6.31171e-07
-8.79545e-06
7.58557e-07
-8.72572e-06
8.89016e-07
-8.63924e-06
1.02172e-06
-8.53543e-06
1.15578e-06
-8.4138e-06
1.2902e-06
-8.274e-06
1.42395e-06
-8.11585e-06
1.55595e-06
-7.93929e-06
1.68509e-06
-7.74447e-06
1.81024e-06
-7.53169e-06
1.93028e-06
-7.30142e-06
2.0441e-06
-7.05433e-06
2.15064e-06
-6.79127e-06
2.24892e-06
-6.51323e-06
2.338e-06
-6.22139e-06
2.41707e-06
-5.91708e-06
2.48537e-06
-5.60174e-06
2.54231e-06
-5.27696e-06
2.58739e-06
-4.9444e-06
2.62026e-06
-4.60584e-06
2.6408e-06
-4.26309e-06
2.64903e-06
-3.91793e-06
2.64519e-06
-3.57213e-06
2.6296e-06
-3.22737e-06
2.60272e-06
-2.88528e-06
2.56508e-06
-2.54744e-06
2.51725e-06
-2.21542e-06
2.45993e-06
-1.89076e-06
2.39382e-06
-1.57491e-06
2.31969e-06
-1.26924e-06
2.23829e-06
-9.74918e-07
2.15031e-06
-6.92732e-07
2.05643e-06
-4.2293e-07
1.95747e-06
-1.65465e-07
1.85444e-06
7.94455e-08
1.74837e-06
3.1109e-07
1.64001e-06
5.2889e-07
1.52997e-06
7.32428e-07
1.41884e-06
9.21537e-07
1.30706e-06
1.0963e-06
1.19504e-06
1.25694e-06
1.08299e-06
1.40378e-06
9.70824e-07
1.53758e-06
8.58363e-07
1.65863e-06
7.45082e-07
1.76773e-06
6.30067e-07
1.86547e-06
5.1183e-07
1.95238e-06
3.87709e-07
2.02986e-06
2.60572e-07
2.08242e-06
1.13979e-07
2.1754e-06
-2.97639e-08
2.12023e-06
-2.11847e-07
2.23524e-06
-3.79485e-07
1.68352e-06
-7.30615e-07
1.17529e-06
-2.37222e-06
1.44067e-06
-2.86725e-06
-3.12901e-06
-3.71254e-06
-9.09623e-06
-4.4362e-06
-5.73848e-06
-5.15122e-06
-4.8162e-06
-5.82202e-06
-4.40802e-06
-6.39926e-06
-3.79589e-06
-6.87074e-06
-3.1488e-06
-7.22613e-06
-2.40248e-06
-7.4622e-06
-1.62184e-06
-8.15104e-07
-4.63145e-08
-6.54279e-06
-9.3035e-08
-6.60013e-06
-1.39569e-07
-6.61289e-06
-1.85761e-07
-6.62522e-06
-2.30959e-07
-6.64135e-06
-2.74317e-07
-6.66387e-06
-3.1705e-07
-6.69092e-06
-3.59187e-07
-6.72219e-06
-4.00382e-07
-6.75834e-06
-4.40516e-07
-6.79958e-06
-4.79473e-07
-6.84576e-06
-5.17106e-07
-6.89668e-06
-5.53248e-07
-6.9521e-06
-5.87712e-07
-7.01182e-06
-6.20297e-07
-7.07565e-06
-6.50789e-07
-7.14342e-06
-6.78962e-07
-7.21492e-06
-7.04577e-07
-7.28994e-06
-7.2738e-07
-7.36824e-06
-7.47106e-07
-7.44957e-06
-7.6348e-07
-7.53363e-06
-7.76218e-07
-7.62012e-06
-7.85026e-07
-7.70868e-06
-7.89599e-07
-7.79896e-06
-7.89627e-07
-7.89052e-06
-7.84796e-07
-7.98294e-06
-7.74787e-07
-8.0757e-06
-7.59283e-07
-8.16829e-06
-7.37971e-07
-8.26012e-06
-7.10546e-07
-8.35057e-06
-6.76712e-07
-8.43895e-06
-6.36191e-07
-8.52455e-06
-5.88723e-07
-8.60658e-06
-5.3407e-07
-8.68422e-06
-4.72022e-07
-8.75659e-06
-4.02405e-07
-8.82279e-06
-3.25087e-07
-8.8819e-06
-2.39993e-07
-8.93296e-06
-1.47121e-07
-8.97503e-06
-4.65523e-08
-9.00714e-06
6.15352e-08
-9.02831e-06
1.76871e-07
-9.03756e-06
2.99085e-07
-9.03387e-06
4.27719e-07
-9.01623e-06
5.62224e-07
-8.98365e-06
7.0195e-07
-8.93518e-06
8.46155e-07
-8.86992e-06
9.93994e-07
-8.78709e-06
1.14453e-06
-8.68596e-06
1.29672e-06
-8.56599e-06
1.44945e-06
-8.42673e-06
1.60153e-06
-8.26793e-06
1.75172e-06
-8.08948e-06
1.89872e-06
-7.89148e-06
2.04123e-06
-7.6742e-06
2.17796e-06
-7.43815e-06
2.30763e-06
-7.184e-06
2.429e-06
-6.91264e-06
2.54093e-06
-6.62516e-06
2.64235e-06
-6.32282e-06
2.73232e-06
-6.00704e-06
2.81e-06
-5.67943e-06
2.87471e-06
-5.34167e-06
2.92589e-06
-4.99559e-06
2.96315e-06
-4.6431e-06
2.98625e-06
-4.28618e-06
2.99518e-06
-3.92686e-06
2.99016e-06
-3.56712e-06
2.97162e-06
-3.20884e-06
2.94015e-06
-2.85381e-06
2.89642e-06
-2.50371e-06
2.84118e-06
-2.16018e-06
2.77522e-06
-1.8248e-06
2.69938e-06
-1.49907e-06
2.61451e-06
-1.18437e-06
2.52145e-06
-8.8186e-07
2.42101e-06
-5.92295e-07
2.31405e-06
-3.15975e-07
2.20156e-06
-5.29827e-08
2.08475e-06
1.96242e-07
1.96469e-06
4.31144e-07
1.84224e-06
6.51323e-07
1.71814e-06
8.56511e-07
1.59302e-06
1.04665e-06
1.4674e-06
1.22189e-06
1.3418e-06
1.38252e-06
1.21634e-06
1.52921e-06
1.09132e-06
1.66258e-06
9.66462e-07
1.78347e-06
8.41261e-07
1.89292e-06
7.14866e-07
1.99185e-06
5.86103e-07
2.08114e-06
4.5131e-07
2.16465e-06
3.14318e-07
2.21941e-06
1.5739e-07
2.33233e-06
-4.30653e-09
2.28193e-06
-1.91675e-07
2.42262e-06
-3.78944e-07
1.87079e-06
-7.76333e-07
1.57268e-06
-2.58658e-06
3.25092e-06
-3.04516e-06
-2.67044e-06
-3.68091e-06
-8.46049e-06
-4.19169e-06
-5.22771e-06
-4.71035e-06
-4.29755e-06
-5.2253e-06
-3.89308e-06
-5.68185e-06
-3.33935e-06
-6.06896e-06
-2.76169e-06
-6.36901e-06
-2.10243e-06
-6.57384e-06
-1.41701e-06
-7.14961e-07
-5.11504e-08
-6.49164e-06
-1.02743e-07
-6.54853e-06
-1.54126e-07
-6.5615e-06
-2.05004e-07
-6.57434e-06
-2.54688e-07
-6.59166e-06
-3.02949e-07
-6.61561e-06
-3.50576e-07
-6.64329e-06
-3.97414e-07
-6.67535e-06
-4.43205e-07
-6.71255e-06
-4.87831e-07
-6.75495e-06
-5.31165e-07
-6.80243e-06
-5.73048e-07
-6.85479e-06
-6.133e-07
-6.91184e-06
-6.51722e-07
-6.9734e-06
-6.88095e-07
-7.03928e-06
-7.22191e-07
-7.10932e-06
-7.53762e-07
-7.18335e-06
-7.82548e-07
-7.26116e-06
-8.08273e-07
-7.34252e-06
-8.30647e-07
-7.42719e-06
-8.49367e-07
-7.51491e-06
-8.64117e-07
-7.60537e-06
-8.74569e-07
-7.69823e-06
-8.80385e-07
-7.79314e-06
-8.81218e-07
-7.88969e-06
-8.76712e-07
-7.98744e-06
-8.66509e-07
-8.0859e-06
-8.50248e-07
-8.18455e-06
-8.27569e-07
-8.2828e-06
-7.98119e-07
-8.38002e-06
-7.61556e-07
-8.47552e-06
-7.1755e-07
-8.56856e-06
-6.65791e-07
-8.65834e-06
-6.05995e-07
-8.74401e-06
-5.37906e-07
-8.82468e-06
-4.61308e-07
-8.89939e-06
-3.76037e-07
-8.96717e-06
-2.81991e-07
-9.02701e-06
-1.79146e-07
-9.07788e-06
-6.75722e-08
-9.11871e-06
5.25594e-08
-9.14845e-06
1.80975e-07
-9.16598e-06
3.17297e-07
-9.1702e-06
4.61027e-07
-9.15996e-06
6.11556e-07
-9.13419e-06
7.68172e-07
-9.0918e-06
9.30039e-07
-9.03179e-06
1.0962e-06
-8.95325e-06
1.2656e-06
-8.85536e-06
1.43706e-06
-8.73745e-06
1.6093e-06
-8.59897e-06
1.78096e-06
-8.43959e-06
1.95061e-06
-8.25913e-06
2.11677e-06
-8.05764e-06
2.27795e-06
-7.83538e-06
2.43263e-06
-7.59283e-06
2.57936e-06
-7.33072e-06
2.71669e-06
-7.04997e-06
2.84331e-06
-6.75177e-06
2.95797e-06
-6.43748e-06
3.0596e-06
-6.10867e-06
3.14724e-06