/*--------------------------------*- C++ -*----------------------------------*\
| =========                 |                                                 |
| \\      /  F ield         | OpenFOAM: The Open Source CFD Toolbox           |
|  \\    /   O peration     | Version:  v2106                                 |
|   \\  /    A nd           | Website:  www.openfoam.com                      |
|    \\/     M anipulation  |                                                 |
\*---------------------------------------------------------------------------*/
FoamFile
{
    version     2.0;
    format      ascii;
    arch        "LSB;label=32;scalar=64";
    class       volVectorField;
    location    "1.2";
    object      U;
}
// * * * * * * * * * * * * * * * * * * * * * * * * * * * * * * * * * * * * * //

dimensions      [0 1 -1 0 0 0 0];

internalField   nonuniform List<vector> 
29678
(
(-0.0567674 1.72983e-23 -4.77272e-05)
(-0.0572546 2.0908e-22 -0.000141721)
(-0.0573356 1.08527e-21 -0.000234399)
(-0.0574091 7.31609e-20 -0.0003207)
(-0.0575056 3.06985e-19 -0.000403558)
(-0.0576351 3.08793e-19 -0.00048468)
(-0.057803 3.18119e-19 -0.000565019)
(-0.0580117 2.87278e-19 -0.000644705)
(-0.0582606 -5.55494e-19 -0.000723327)
(-0.0585472 2.35976e-19 -0.000800109)
(-0.0588689 -6.04401e-19 -0.000873886)
(-0.0592242 2.6163e-19 -0.000942653)
(-0.0596106 -5.70032e-19 -0.00100563)
(-0.0600263 2.36958e-19 -0.00106149)
(-0.0604702 -5.79264e-19 -0.00111173)
(-0.0609394 2.7858e-19 -0.00115763)
(-0.0614305 -5.80066e-19 -0.00119984)
(-0.06194 -5.9628e-19 -0.00123925)
(-0.0624644 2.88678e-19 -0.00127602)
(-0.0630015 -5.90118e-19 -0.00131065)
(-0.0635501 -6.33018e-19 -0.0013432)
(-0.0641067 -6.12835e-19 -0.00137382)
(-0.064667 -3.51888e-20 -0.00140217)
(-0.0652275 -1.31396e-19 -0.00142777)
(-0.0657843 -2.49975e-19 -0.00145016)
(-0.0663337 -1.60721e-19 -0.00146895)
(-0.0668716 -1.42749e-19 -0.00148376)
(-0.0673938 3.51436e-19 -0.00149425)
(-0.0678958 -6.6984e-19 -0.00150002)
(-0.0683728 -7.41754e-19 -0.00150053)
(-0.0688197 -7.41909e-19 -0.00149532)
(-0.069231 -3.81157e-20 -0.00148342)
(-0.0696013 -5.25356e-20 -0.0014639)
(-0.0699252 2.71759e-19 -0.00143623)
(-0.070197 3.43427e-19 -0.00139979)
(-0.0704117 4.85985e-19 -0.00135411)
(-0.0705639 3.47237e-19 -0.00129877)
(-0.0706485 4.56498e-19 -0.00123346)
(-0.0706602 4.35819e-19 -0.00115803)
(-0.0705943 3.38049e-19 -0.00107261)
(-0.0704466 3.46531e-19 -0.00097776)
(-0.070213 4.1604e-19 -0.000873775)
(-0.0698874 3.27099e-19 -0.000763397)
(-0.069466 3.77996e-19 -0.000648723)
(-0.0689442 2.83469e-19 -0.000530525)
(-0.0683164 -3.32856e-19 -0.000408181)
(-0.0675806 3.21771e-19 -0.000281659)
(-0.0667352 2.74261e-19 -0.000151138)
(-0.0657787 3.90613e-19 -1.71205e-05)
(-0.0647105 2.65609e-19 0.000119653)
(-0.0635304 3.58858e-19 0.000258301)
(-0.062239 3.82775e-19 0.000397846)
(-0.0608379 3.69108e-19 0.000537203)
(-0.0593292 1.96397e-19 0.000675237)
(-0.0577158 2.69717e-20 0.000810752)
(-0.0560016 3.33165e-19 0.000942553)
(-0.054191 1.994e-19 0.00106944)
(-0.0522893 2.86524e-19 0.00119021)
(-0.0503025 2.10511e-19 0.00130371)
(-0.0482372 3.12132e-19 0.00140886)
(-0.0461008 2.05307e-19 0.00150471)
(-0.043901 2.65597e-19 0.00159038)
(-0.0416463 1.73682e-19 0.00166509)
(-0.0393455 1.86595e-19 0.00172821)
(-0.0370075 2.29516e-19 0.00177919)
(-0.0346417 2.27201e-19 0.00181762)
(-0.0322571 9.60754e-21 0.00184321)
(-0.029863 1.06627e-19 0.00185581)
(-0.0274687 -3.11845e-19 0.00185534)
(-0.0250834 9.61017e-20 0.00184181)
(-0.0227163 -9.73476e-20 0.00181522)
(-0.0203762 7.46402e-20 0.00177555)
(-0.0180719 -1.36573e-19 0.00172272)
(-0.0158117 8.02935e-20 0.00165668)
(-0.0136033 -8.46988e-20 0.00157736)
(-0.0114533 -1.13545e-19 0.00148479)
(-0.00936677 5.6561e-20 0.0013792)
(-0.00734714 -4.83505e-20 0.00126123)
(-0.00539706 3.14191e-20 0.00113205)
(-0.00351973 -1.09734e-19 0.000993243)
(-0.00171817 2.8751e-20 0.000846522)
(9.42658e-06 -2.36367e-20 0.000702191)
(0.00166678 1.58852e-20 0.000581709)
(0.00324015 -3.33261e-20 0.000481325)
(0.00470064 -9.67761e-21 0.000402708)
(0.00602959 7.44467e-22 0.00033629)
(0.00722642 -2.61253e-20 0.000268417)
(0.00830413 -1.22817e-20 0.000191935)
(0.0092878 1.19926e-20 0.000102029)
(0.0102104 -1.52419e-20 5.59077e-06)
(0.0111029 -9.56473e-21 -6.57043e-05)
(0.0119923 -5.3682e-21 -9.53259e-05)
(0.01283 -3.14203e-20 0.000127797)
(0.0138428 -9.24154e-21 0.000225723)
(0.0143331 -7.61817e-20 0.00149618)
(0.0150572 -4.44124e-20 0.000987998)
(0.014303 -2.52921e-20 0.00468266)
(0.0111917 -1.70478e-19 0.000137432)
(0.014169 5.93223e-20 0.00612823)
(-0.0797511 -2.91977e-19 0.00943665)
(-0.0749114 -3.45827e-19 -0.0124545)
(-0.24639 1.447e-19 -0.00623403)
(-0.297936 -1.6183e-19 -0.0866376)
(-0.180757 5.51007e-21 -0.13456)
(-0.165403 -3.5392e-19 -0.149531)
(-0.106826 -1.39426e-19 -0.172898)
(-0.0784772 -6.33738e-20 -0.175945)
(-0.0353329 3.54831e-19 -0.177618)
(-0.0137262 2.26354e-20 -0.168795)
(-0.00232144 -2.52714e-19 -0.160896)
(-0.0566208 1.42438e-23 -5.51918e-05)
(-0.0571095 4.349e-22 -0.00016263)
(-0.0571966 1.21063e-20 -0.000270296)
(-0.0572763 2.73578e-19 -0.000372738)
(-0.0573766 6.03591e-21 -0.000472574)
(-0.057508 -4.26039e-21 -0.000570734)
(-0.0576771 1.95973e-21 -0.000667612)
(-0.0578872 2.456e-19 -0.000762906)
(-0.0581385 -2.46478e-19 -0.000855907)
(-0.0584293 -2.75519e-20 -0.000945688)
(-0.0587582 -2.81931e-19 -0.00103058)
(-0.0591239 2.58157e-19 -0.00110768)
(-0.0595205 -2.52794e-19 -0.00117736)
(-0.0599442 -3.07774e-20 -0.00124047)
(-0.0603952 -2.93947e-19 -0.00129867)
(-0.0608709 3.09502e-19 -0.00135298)
(-0.0613671 -3.44839e-19 -0.00140381)
(-0.061881 -3.21848e-19 -0.00145152)
(-0.0624094 5.83807e-19 -0.00149576)
(-0.0629504 -3.79549e-19 -0.00153674)
(-0.0635026 -4.17888e-19 -0.00157399)
(-0.0640629 -3.97987e-19 -0.00160723)
(-0.0646276 -1.93498e-20 -0.00163578)
(-0.0651931 -4.38857e-19 -0.00165897)
(-0.0657557 -3.50275e-20 -0.00167618)
(-0.0663116 -6.75649e-19 -0.00168689)
(-0.0668565 4.33368e-19 -0.00169064)
(-0.0673864 6.62311e-19 -0.00168696)
(-0.0678966 -3.99877e-19 -0.0016754)
(-0.0683827 -4.18905e-19 -0.00165549)
(-0.0688392 -3.67483e-19 -0.0016268)
(-0.0692605 -2.87312e-20 -0.0015886)
(-0.0696423 -5.99588e-19 -0.00153984)
(-0.06998 -3.07976e-20 -0.00147959)
(-0.0702668 2.6678e-19 -0.00140621)
(-0.0704971 1.19618e-21 -0.00131954)
(-0.0706653 -7.49051e-20 -0.00121927)
(-0.0707661 -6.04592e-21 -0.00110525)
(-0.0707941 -2.00505e-20 -0.000977517)
(-0.0707439 -8.00576e-20 -0.000836375)
(-0.0706104 4.34531e-21 -0.000682156)
(-0.0703899 3.39941e-19 -0.000516932)
(-0.070076 7.84396e-21 -0.000343328)
(-0.0696626 3.017e-20 -0.000160169)
(-0.0691472 -4.10601e-20 3.42976e-05)
(-0.0685267 -6.26821e-19 0.000238294)
(-0.0677981 6.44056e-20 0.000450862)
(-0.066959 -1.83855e-21 0.000671098)
(-0.0660078 4.06563e-19 0.000897584)
(-0.0649433 3.2873e-22 0.00112867)
(-0.0637653 1.27446e-19 0.00136256)
(-0.0624743 3.94056e-19 0.00159736)
(-0.0610715 3.67427e-19 0.00183109)
(-0.0595591 -2.69286e-19 0.00206169)
(-0.05794 4.66781e-21 0.00228709)
(-0.0562179 3.23179e-19 0.00250523)
(-0.0543975 -2.44911e-19 0.00271406)
(-0.0524839 5.85726e-20 0.00291156)
(-0.0504833 -1.22525e-20 0.00309584)
(-0.0484027 3.01496e-19 0.00326515)
(-0.0462492 -4.61204e-21 0.0034179)
(-0.0440311 8.46004e-20 0.00355267)
(-0.0417568 -3.54337e-20 0.00366822)
(-0.0394355 -2.83369e-21 0.00376355)
(-0.0370764 8.1095e-20 0.00383781)
(-0.0346888 2.36125e-19 0.00389042)
(-0.0322823 -4.56775e-21 0.00392103)
(-0.0298663 -1.43292e-20 0.00392955)
(-0.0274502 -3.43625e-19 0.00391611)
(-0.0250435 -3.34319e-20 0.00388108)
(-0.0226551 7.01406e-21 0.00382501)
(-0.020294 -3.50226e-20 0.00374857)
(-0.0179689 -2.6918e-19 0.00365258)
(-0.0156881 -1.15429e-20 0.00353798)
(-0.0134594 7.82244e-21 0.00340589)
(-0.0112894 -2.3463e-19 0.00325767)
(-0.00918386 -7.63969e-21 0.00309509)
(-0.00714681 4.08154e-21 0.00292062)
(-0.00518178 -1.24782e-20 0.0027378)
(-0.00329259 -1.42175e-19 0.00255131)
(-0.00148282 -1.36767e-20 0.00236734)
(0.000245767 7.15168e-22 0.0021823)
(0.00188611 -1.47405e-20 0.00200083)
(0.0034306 -5.38656e-20 0.00183289)
(0.00487063 -1.10555e-20 0.00167719)
(0.00619612 -1.05212e-20 0.00152462)
(0.00740544 -7.32835e-21 0.00136507)
(0.00850178 -5.02762e-21 0.00118998)
(0.00949731 1.24495e-21 0.0010065)
(0.0104054 -4.84051e-21 0.000826626)
(0.0112297 6.19019e-20 0.000668248)
(0.0119643 5.51685e-21 0.000523713)
(0.0126068 -3.28923e-21 0.000563215)
(0.0130711 8.91586e-20 0.00038399)
(0.013411 5.66456e-22 0.00102888)
(0.013075 4.95748e-20 0.000314371)
(0.0131193 -1.00022e-20 0.00289817)
(0.00940872 -2.10701e-19 -0.00027494)
(0.0040581 -9.73358e-21 0.00759342)
(-0.061307 5.36076e-20 0.0085846)
(-0.0631811 -2.08952e-18 -0.0107494)
(-0.181395 -1.50529e-19 -0.0131433)
(-0.176977 -3.59377e-20 -0.0742732)
(-0.138085 -1.02846e-19 -0.116893)
(-0.122962 -1.03861e-19 -0.130188)
(-0.0924891 -1.36846e-20 -0.150375)
(-0.0699625 -4.77795e-20 -0.153964)
(-0.0453515 -3.68741e-20 -0.155881)
(-0.0264778 -4.0317e-19 -0.150115)
(-0.0115311 1.09036e-19 -0.14432)
(-0.0565026 -3.32267e-23 -6.79736e-05)
(-0.0569935 -2.57302e-22 -0.000200323)
(-0.0570842 -2.1739e-21 -0.000333458)
(-0.0571669 -4.9461e-20 -0.000461455)
(-0.0572694 -2.68469e-19 -0.000587267)
(-0.0574025 -2.72987e-19 -0.000711186)
(-0.0575736 -2.8559e-19 -0.000833101)
(-0.0577864 -2.4231e-19 -0.000952237)
(-0.0580415 5.13599e-19 -0.00106766)
(-0.0583383 -2.16525e-19 -0.00117827)
(-0.0586737 4.94804e-19 -0.00127961)
(-0.0590437 -1.9778e-19 -0.00137491)
(-0.0594463 5.09913e-19 -0.00146531)
(-0.0598766 -2.71879e-19 -0.00155273)
(-0.0603318 5.4759e-19 -0.00163692)
(-0.0608104 -2.04506e-19 -0.00171737)
(-0.0613098 5.71679e-19 -0.00179386)
(-0.0618273 5.99787e-19 -0.00186554)
(-0.0623598 -2.19922e-19 -0.00193123)
(-0.0629057 5.93403e-19 -0.00198986)
(-0.0634632 6.30696e-19 -0.00204068)
(-0.0640296 6.11263e-19 -0.00208339)
(-0.0646011 2.23531e-20 -0.0021174)
(-0.0651743 -6.38281e-20 -0.00214191)
(-0.0657452 3.19585e-19 -0.00215608)
(-0.0663099 -2.11386e-20 -0.00215902)
(-0.0668644 4.31233e-19 -0.00214986)
(-0.0674043 -2.37699e-19 -0.00212772)
(-0.0679251 6.79102e-19 -0.00209178)
(-0.0684221 7.25997e-19 -0.00204142)
(-0.0688906 7.14642e-19 -0.00197594)
(-0.0693256 1.44306e-20 -0.00189544)
(-0.0697217 -9.55997e-21 -0.00179994)
(-0.0700723 -2.59682e-19 -0.00168915)
(-0.0703726 -3.2887e-19 -0.00156223)
(-0.0706181 -4.5279e-19 -0.00141762)
(-0.070802 -3.40233e-19 -0.00125444)
(-0.0709185 -3.96382e-19 -0.00107277)
(-0.070962 -4.00792e-19 -0.000872657)
(-0.0709269 -2.91409e-19 -0.000654438)
(-0.0708073 -2.9907e-19 -0.000418723)
(-0.0705976 -3.37559e-19 -0.000169326)
(-0.0702954 -3.37195e-19 9.5895e-05)
(-0.0698953 -3.02101e-19 0.00037843)
(-0.0693931 -3.48775e-19 0.000676116)
(-0.0687846 2.88416e-19 0.00098724)
(-0.0680663 -2.77077e-19 0.0013101)
(-0.0672357 -3.23461e-19 0.00164288)
(-0.0662908 -3.09527e-19 0.00198348)
(-0.0652305 -2.91203e-19 0.00232952)
(-0.0640544 -2.71124e-19 0.00267842)
(-0.0627629 -2.99278e-19 0.0030275)
(-0.0613571 -2.76041e-19 0.00337394)
(-0.0598392 -2.33533e-19 0.00371484)
(-0.0582121 -2.86075e-20 0.00404726)
(-0.0564796 -2.37747e-19 0.00436828)
(-0.0546462 -2.03648e-19 0.00467502)
(-0.0527174 -2.31756e-19 0.00496464)
(-0.0506994 -2.49207e-19 0.00523452)
(-0.0485993 -2.37148e-19 0.0054822)
(-0.0464247 -2.05401e-19 0.00570545)
(-0.0441837 -2.09437e-19 0.00590227)
(-0.0418853 -2.30855e-19 0.00607094)
(-0.0395387 -1.7412e-19 0.00620998)
(-0.0371534 -1.81088e-19 0.00631822)
(-0.0347392 -2.11643e-19 0.00639481)
(-0.0323056 -2.12283e-20 0.00643919)
(-0.0298626 -1.23726e-19 0.00645122)
(-0.0274198 3.00922e-19 0.00643107)
(-0.0249869 -1.35651e-19 0.00637926)
(-0.0225732 1.20622e-19 0.00629664)
(-0.0201879 -8.85002e-20 0.00618434)
(-0.0178398 1.18282e-19 0.00604381)
(-0.0155377 -1.20542e-19 0.00587676)
(-0.0132896 1.22267e-19 0.00568526)
(-0.0111028 9.02925e-20 0.00547179)
(-0.00898353 -9.48265e-20 0.00523943)
(-0.00693695 6.84654e-20 0.00499231)
(-0.0049676 -4.04342e-20 0.00473537)
(-0.00307976 1.17967e-19 0.00447304)
(-0.00127771 -5.91735e-20 0.00420672)
(0.000433217 3.97039e-20 0.00393711)
(0.00205653 -2.21778e-20 0.00366603)
(0.00358732 2.1007e-20 0.00339662)
(0.00501808 9.61004e-21 0.00312868)
(0.0063434 -3.15495e-21 0.00285963)
(0.007559 -5.5389e-21 0.00258853)
(0.00866614 -3.84764e-21 0.00231123)
(0.00966848 -8.67434e-21 0.00202994)
(0.0105699 1.98492e-20 0.00175198)
(0.011374 -4.95483e-20 0.00148739)
(0.0120737 -5.50176e-22 0.00124226)
(0.0126901 3.22257e-20 0.00114277)
(0.0130992 -8.30856e-20 0.000884095)
(0.0135489 4.35664e-20 0.00132645)
(0.0133328 -5.48453e-20 0.000658541)
(0.0137183 1.51159e-20 0.00226715)
(0.0101566 1.10951e-19 0.00040354)
(0.0038806 -8.44335e-21 0.00337018)
(-0.0556394 3.67578e-19 0.00282934)
(-0.0600867 3.56235e-19 -0.00841645)
(-0.168148 -1.78027e-19 -0.0164812)
(-0.158897 1.14593e-19 -0.0552649)
(-0.125866 -1.90624e-20 -0.085339)
(-0.111708 2.52471e-19 -0.10314)
(-0.0853243 3.89953e-21 -0.12059)
(-0.064515 -2.32265e-20 -0.128378)
(-0.0426233 -1.56081e-19 -0.133143)
(-0.0250227 1.79092e-19 -0.133206)
(-0.0109973 2.26646e-19 -0.132173)
(-0.0563537 -5.89387e-23 -8.36162e-05)
(-0.0568456 -9.64157e-22 -0.000246901)
(-0.0569397 -1.9455e-20 -0.000411841)
(-0.0570252 -2.51629e-19 -0.000571041)
(-0.05713 2.63382e-19 -0.000728006)
(-0.0572656 2.84175e-19 -0.000882659)
(-0.0574397 2.74414e-19 -0.0010345)
(-0.0576564 -5.35682e-21 -0.0011825)
(-0.0579176 -2.30907e-19 -0.00132581)
(-0.0582205 2.31038e-19 -0.00146012)
(-0.0585617 -2.34555e-19 -0.00158779)
(-0.0589381 -2.70471e-20 -0.00171402)
(-0.059344 -2.24123e-19 -0.00183651)
(-0.0597768 2.33141e-19 -0.00195458)
(-0.0602356 -2.54199e-19 -0.00206757)
(-0.0607187 -2.80985e-20 -0.00217492)
(-0.0612237 -2.17115e-19 -0.00227596)
(-0.061748 -2.90253e-19 -0.00236961)
(-0.0622887 -3.43784e-19 -0.00245458)
(-0.0628437 -2.63933e-19 -0.00252953)
(-0.063411 -2.82628e-19 -0.00259361)
(-0.0639876 -2.85287e-19 -0.00264611)
(-0.0645702 2.95985e-21 -0.0026862)
(-0.0651553 2.79642e-19 -0.00271289)
(-0.0657392 -2.35495e-19 -0.00272515)
(-0.0663179 5.61657e-19 -0.0027219)
(-0.0668873 -6.10715e-19 -0.00270204)
(-0.0674431 -3.60133e-19 -0.00266448)
(-0.0679808 -3.02549e-19 -0.00260814)
(-0.0684956 -2.8624e-19 -0.00253201)
(-0.0689822 -3.10786e-19 -0.00243504)
(-0.0694353 2.18583e-20 -0.00231616)
(-0.0698497 6.98895e-19 -0.00217455)
(-0.07022 2.98449e-19 -0.00200968)
(-0.0705407 1.40865e-20 -0.0018228)
(-0.0708055 2.8476e-19 -0.00161417)
(-0.0710094 3.84746e-19 -0.00138311)
(-0.0711468 3.6226e-19 -0.00112864)
(-0.071211 3.14299e-19 -0.000850963)
(-0.0711948 3.77672e-19 -0.000550672)
(-0.0710926 2.7792e-19 -0.000230409)
(-0.0709006 1.45861e-20 0.000109539)
(-0.0706162 3.42132e-19 0.000472131)
(-0.0702337 4.67884e-19 0.000855621)
(-0.0697476 3.17374e-19 0.00125819)
(-0.0691535 3.06755e-19 0.0016779)
(-0.0684475 3.78107e-19 0.00211248)
(-0.0676268 2.80611e-19 0.0025594)
(-0.0666893 1.68916e-20 0.00301578)
(-0.0656335 2.84477e-19 0.00347849)
(-0.0644588 3.24412e-19 0.00394421)
(-0.0631655 1.07664e-20 0.00440946)
(-0.0617547 -3.18535e-21 0.00487057)
(-0.0602284 5.23044e-19 0.00532375)
(-0.0585896 4.59401e-20 0.00576515)
(-0.0568419 1.33759e-20 0.0061909)
(-0.0549902 5.12696e-19 0.00659723)
(-0.0530398 2.85171e-19 0.00698054)
(-0.0509975 2.41768e-19 0.00733743)
(-0.0488703 1.57431e-20 0.00766472)
(-0.0466662 2.22521e-19 0.00795949)
(-0.0443936 2.23212e-19 0.00821919)
(-0.0420618 1.74029e-19 0.00844161)
(-0.0396803 2.53397e-19 0.00862492)
(-0.0372589 2.35687e-19 0.00876763)
(-0.0348078 -2.43306e-20 0.00886868)
(-0.032337 -3.18656e-20 0.0089274)
(-0.0298568 1.29963e-19 0.0089436)
(-0.0273772 3.70419e-20 0.0089175)
(-0.0249083 1.73095e-19 0.00884981)
(-0.0224598 -1.14898e-19 0.00874163)
(-0.0200411 9.1496e-20 0.00859453)
(-0.0176618 1.44605e-19 0.00841052)
(-0.0153306 1.42574e-19 0.00819203)
(-0.0130564 -1.05993e-19 0.007942)
(-0.0108468 9.16529e-20 0.00766393)
(-0.00870891 1.12005e-19 0.00736213)
(-0.00664894 -5.87619e-20 0.0070419)
(-0.00467118 3.38989e-20 0.00670846)
(-0.00277722 2.4818e-20 0.00636463)
(-0.000967679 6.96378e-20 0.00600923)
(0.000755394 -2.74367e-20 0.00564186)
(0.0023875 1.01603e-20 0.00526524)
(0.00392337 3.55738e-20 0.00488198)
(0.00535714 1.04504e-20 0.00449596)
(0.00668495 -8.52996e-21 0.00410938)
(0.00790359 1.20986e-20 0.00372156)
(0.0090116 4.05221e-21 0.0033329)
(0.0100115 1.60972e-20 0.00294337)
(0.010902 -2.0417e-20 0.00255654)
(0.0116814 1.34454e-21 0.00218044)
(0.0123421 3.08499e-21 0.00181805)
(0.0128784 -2.97403e-20 0.00151632)
(0.01318 -6.43068e-21 0.00112318)
(0.013518 -3.76404e-20 0.00112209)
(0.0130304 2.90213e-22 0.000401132)
(0.0132191 2.38672e-20 0.00104245)
(0.00889612 1.1078e-19 -0.000394378)
(0.0014168 3.901e-20 0.00199561)
(-0.0478457 -1.6194e-19 0.00087713)
(-0.0537463 -1.15895e-19 -0.0107389)
(-0.139839 1.50779e-19 -0.0172274)
(-0.116674 -1.58616e-19 -0.0472224)
(-0.100307 1.42726e-19 -0.0722771)
(-0.0894792 3.2553e-20 -0.0875837)
(-0.0728288 -1.08421e-19 -0.10258)
(-0.0571248 -1.13038e-19 -0.110158)
(-0.0407837 3.23208e-19 -0.115412)
(-0.0258428 6.62065e-20 -0.117067)
(-0.0123444 -2.54938e-19 -0.117481)
(-0.0561724 -3.59222e-23 -0.000100449)
(-0.0566644 -4.72074e-22 -0.000297318)
(-0.0567613 -7.71276e-21 -0.000497303)
(-0.0568496 -1.17047e-20 -0.000691065)
(-0.0569572 2.08152e-20 -0.000882492)
(-0.0570959 1.62751e-20 -0.00107111)
(-0.057274 5.8282e-21 -0.00125604)
(-0.0574965 -9.9435e-21 -0.00143622)
(-0.0577641 8.85643e-22 -0.00160794)
(-0.0580737 4.61243e-21 -0.00177101)
(-0.0584194 -6.00428e-20 -0.00193325)
(-0.0587986 2.15938e-20 -0.00209106)
(-0.0592085 -3.55243e-21 -0.00224362)
(-0.0596469 7.30528e-21 -0.00239029)
(-0.0601122 -3.33454e-20 -0.00253001)
(-0.0606025 2.71234e-20 -0.00266188)
(-0.0611156 -2.77047e-21 -0.002785)
(-0.0616491 1.73994e-21 -0.00289824)
(-0.0622005 -2.05462e-20 -0.00300029)
(-0.0627674 -1.35874e-20 -0.0030898)
(-0.0633475 3.00258e-21 -0.00316566)
(-0.0639378 1.076e-20 -0.00322683)
(-0.0645351 3.26935e-20 -0.00327218)
(-0.0651361 9.73863e-21 -0.00330051)
(-0.0657369 -4.98662e-21 -0.00331055)
(-0.0663338 7.86617e-22 -0.003301)
(-0.0669226 -2.0057e-20 -0.00327058)
(-0.067499 -7.58777e-21 -0.00321797)
(-0.0680584 -3.14841e-20 -0.00314192)
(-0.068596 -9.78721e-21 -0.00304119)
(-0.0691066 -3.46889e-20 -0.00291458)
(-0.0695849 2.99028e-20 -0.00276094)
(-0.0700251 -5.28219e-20 -0.00257923)
(-0.0704214 -2.0952e-21 -0.00236846)
(-0.0707675 3.08384e-20 -0.00212787)
(-0.071058 1.58048e-20 -0.00185773)
(-0.0712874 1.32199e-19 -0.00155912)
(-0.0714494 -3.21081e-21 -0.00123256)
(-0.0715373 -3.18268e-21 -0.000878843)
(-0.0715447 -1.46411e-20 -0.00049811)
(-0.0714661 9.17749e-21 -9.01423e-05)
(-0.071299 8.72599e-20 0.00034577)
(-0.0710384 1.23154e-20 0.000808537)
(-0.070678 1.1424e-19 0.00129611)
(-0.070212 2.97035e-21 0.00180648)
(-0.0696355 -4.08523e-20 0.00233742)
(-0.0689446 7.96763e-20 0.00288626)
(-0.0681359 2.00847e-20 0.0034499)
(-0.067207 4.24929e-20 0.00402482)
(-0.0661562 1.07159e-20 0.00460716)
(-0.0649827 6.42067e-20 0.00519284)
(-0.0636866 3.52113e-20 0.00577752)
(-0.0622689 1.01956e-20 0.00635662)
(-0.0607313 1.79618e-20 0.00692539)
(-0.0590768 -2.30929e-21 0.007479)
(-0.0573093 1.96289e-21 0.0080126)
(-0.0554334 2.2775e-20 0.00852146)
(-0.0534551 2.70697e-20 0.00900114)
(-0.0513811 1.28045e-20 0.00944743)
(-0.0492188 2.13479e-20 0.00985628)
(-0.0469765 1.32615e-20 0.010224)
(-0.0446632 3.06264e-20 0.0105476)
(-0.0422883 -7.00299e-20 0.0108243)
(-0.039862 5.04971e-20 0.0110519)
(-0.0373945 9.59899e-20 0.0112287)
(-0.0348963 2.41401e-20 0.0113536)
(-0.032378 -4.58353e-20 0.0114258)
(-0.0298502 3.90716e-20 0.0114451)
(-0.0273237 2.08e-20 0.0114121)
(-0.0248088 1.00635e-20 0.0113275)
(-0.0223159 -7.03542e-21 0.0111928)
(-0.019855 -4.25373e-20 0.0110101)
(-0.0174358 1.45354e-20 0.0107819)
(-0.015068 5.21353e-20 0.0105114)
(-0.0127607 3.11407e-20 0.0102024)
(-0.0105224 -6.26212e-20 0.0098592)
(-0.00836116 4.36883e-20 0.00948711)
(-0.00628318 -1.21256e-21 0.00909171)
(-0.0042907 -2.81025e-21 0.00867707)
(-0.00238138 -7.59558e-22 0.00824389)
(-0.000554763 1.98463e-21 0.00779121)
(0.00118291 6.87746e-22 0.00732082)
(0.00282402 -2.56959e-20 0.00683779)
(0.00436383 3.77512e-20 0.00634763)
(0.00579919 -1.33794e-20 0.00585379)
(0.00712674 -2.13617e-20 0.00535861)
(0.00834474 -5.62901e-22 0.00486252)
(0.00945258 9.69572e-21 0.00436542)
(0.0104498 1.55352e-21 0.00386816)
(0.0113355 -3.61549e-21 0.00337253)
(0.0121046 7.67024e-21 0.00288072)
(0.01275 -3.75016e-21 0.00239395)
(0.0132549 1.84386e-21 0.00191853)
(0.0135649 3.20785e-20 0.0014226)
(0.0139068 -2.94376e-21 0.0010467)
(0.0134749 1.26197e-20 0.000394961)
(0.0137667 3.25713e-20 0.00032942)
(0.00956766 -3.26008e-20 -0.000715105)
(0.0018243 -9.69335e-20 -5.50031e-05)
(-0.0395283 4.52578e-20 -0.00175861)
(-0.0479077 6.2858e-19 -0.0140715)
(-0.123856 -1.25233e-19 -0.0205022)
(-0.0977074 -5.32492e-20 -0.0411394)
(-0.0851148 4.11689e-20 -0.0610176)
(-0.076206 9.82174e-20 -0.0738438)
(-0.0630788 -6.99779e-20 -0.0869718)
(-0.050033 3.1724e-20 -0.0944117)
(-0.0364428 5.27911e-20 -0.100151)
(-0.0234752 -3.60481e-19 -0.102933)
(-0.0113709 7.46597e-20 -0.104446)
(-0.0559567 -3.03624e-23 -0.000118216)
(-0.0564478 -4.21152e-22 -0.000350377)
(-0.0565472 -6.82654e-21 -0.000587167)
(-0.0566383 2.14083e-20 -0.000817339)
(-0.0567488 2.56991e-21 -0.00104515)
(-0.0568913 7.60981e-21 -0.00126967)
(-0.0570751 -8.95787e-21 -0.00148963)
(-0.057305 1.95981e-20 -0.00170167)
(-0.0575807 2.67384e-19 -0.00190207)
(-0.0578944 -5.73649e-20 -0.00210012)
(-0.0582443 2.52937e-19 -0.0022949)
(-0.0586284 2.52516e-20 -0.00248311)
(-0.0590445 2.83499e-19 -0.00266498)
(-0.0594903 -1.01494e-20 -0.00283936)
(-0.0599639 2.57992e-19 -0.00300505)
(-0.0604636 2.30898e-20 -0.00316095)
(-0.0609871 2.84153e-19 -0.00330595)
(-0.0615324 2.32564e-19 -0.00343879)
(-0.0620969 -2.49307e-19 -0.00355804)
(-0.0626782 3.15027e-19 -0.00366229)
(-0.0632739 3.00609e-19 -0.00375014)
(-0.0638811 2.72703e-19 -0.00382029)
(-0.0644965 2.22549e-20 -0.00387135)
(-0.0651169 2.3757e-19 -0.00390186)
(-0.0657387 3.74999e-20 -0.00391032)
(-0.0663579 2.41991e-19 -0.00389522)
(-0.0669704 5.33129e-20 -0.00385502)
(-0.0675719 -2.39623e-19 -0.00378821)
(-0.0681577 3.6613e-19 -0.00369329)
(-0.068723 3.19519e-19 -0.00356883)
(-0.0692626 3.21367e-19 -0.00341348)
(-0.069771 2.01231e-20 -0.00322598)
(-0.0702424 1.96154e-19 -0.00300521)
(-0.0706708 -9.71765e-20 -0.00275017)
(-0.0710497 5.6076e-20 -0.00246003)
(-0.0713728 -6.96613e-20 -0.00213418)
(-0.0716337 3.92103e-20 -0.00177266)
(-0.0718264 -4.30002e-19 -0.00137609)
(-0.0719447 -1.49518e-19 -0.00094517)
(-0.071983 5.48734e-20 -0.000480201)
(-0.0719362 -1.01668e-19 1.88725e-05)
(-0.0717992 6.30019e-20 0.000551563)
(-0.0715664 -1.2689e-19 0.001116)
(-0.0712317 6.03688e-20 0.00170993)
(-0.0707891 -1.33497e-19 0.00233097)
(-0.0702335 2.65523e-19 0.00297641)
(-0.0695603 9.21058e-20 0.00364309)
(-0.0687657 2.69066e-20 0.00432734)
(-0.0678468 8.2864e-20 0.00502501)
(-0.0668018 -7.92764e-21 0.00573152)
(-0.0656294 1.19181e-19 0.0064419)
(-0.0643294 1.04331e-19 0.00715084)
(-0.0629027 6.3321e-20 0.00785281)
(-0.0613508 -5.1655e-20 0.00854207)
(-0.0596767 -2.15755e-19 0.0092128)
(-0.0578842 6.40746e-20 0.00985914)
(-0.0559784 7.61544e-22 0.0104754)
(-0.0539654 8.18068e-20 0.011056)
(-0.051852 7.31353e-21 0.0115959)
(-0.0496461 8.40004e-20 0.01209)
(-0.0473565 1.51466e-20 0.0125339)
(-0.0449926 7.09109e-20 0.0129237)
(-0.0425647 -2.58243e-19 0.0132563)
(-0.0400831 1.85299e-20 0.0135291)
(-0.0375589 1.2517e-19 0.0137402)
(-0.035003 2.15839e-20 0.0138884)
(-0.0324266 -5.87932e-20 0.0139732)
(-0.029841 -5.79349e-20 0.0139944)
(-0.0272573 1.45741e-19 0.0139528)
(-0.0246867 5.09033e-20 0.0138495)
(-0.02214 1.3808e-20 0.0136864)
(-0.0196279 -7.46197e-20 0.013466)
(-0.0171607 9.60308e-20 0.0131915)
(-0.0147487 5.2646e-20 0.0128668)
(-0.0124016 -3.00634e-20 0.0124962)
(-0.0101288 6.88369e-20 0.012085)
(-0.00793847 4.90623e-20 0.0116386)
(-0.00583588 1.03201e-20 0.0111623)
(-0.00382037 -5.4915e-20 0.0106588)
(-0.00188798 5.54868e-20 0.0101289)
(-4.08722e-05 3.18403e-20 0.00957516)
(0.0017116 1.66388e-20 0.00900293)
(0.00336229 -4.86378e-20 0.00841715)
(0.00490818 1.56927e-20 0.00782198)
(0.00634632 4.50054e-20 0.00722137)
(0.00767557 -2.813e-20 0.00661858)
(0.00889345 -6.87256e-21 0.00601433)
(0.0100016 1.03246e-20 0.00540913)
(0.010999 1.18246e-20 0.00480247)
(0.0118842 -6.36335e-21 0.00419305)
(0.0126531 -1.91311e-20 0.00358292)
(0.0132982 6.90832e-21 0.0029655)
(0.013805 5.43056e-21 0.00233258)
(0.0141408 -3.53025e-20 0.00172544)
(0.0144703 2.98937e-20 0.000957549)
(0.0140445 -3.79886e-20 0.000389422)
(0.0142419 -2.1842e-20 -0.000535577)
(0.00996794 1.68309e-20 -0.00108346)
(0.00211498 -1.10428e-19 -0.00172376)
(-0.0302317 2.3797e-19 -0.00364268)
(-0.0423874 3.08318e-19 -0.0171138)
(-0.108563 -2.11194e-19 -0.0223991)
(-0.0794401 8.09386e-20 -0.0377474)
(-0.069977 2.39477e-19 -0.0540672)
(-0.0633965 3.3112e-20 -0.0640486)
(-0.0536864 -2.88127e-19 -0.0753166)
(-0.0434448 -7.28185e-20 -0.0817898)
(-0.0324129 2.62515e-19 -0.0873007)
(-0.0213724 9.16936e-20 -0.0903177)
(-0.0105294 -2.68754e-19 -0.092229)
(-0.055705 -1.57528e-23 -0.000136704)
(-0.0561945 -2.03185e-22 -0.000405434)
(-0.056296 -3.40175e-21 -0.000680208)
(-0.0563897 5.93061e-20 -0.000947927)
(-0.0565035 1.45753e-20 -0.00121327)
(-0.056651 1.69281e-21 -0.00147489)
(-0.0568432 -6.08742e-21 -0.00172981)
(-0.057083 -1.24589e-20 -0.00197047)
(-0.0573637 -2.77737e-19 -0.00220514)
(-0.0576823 -2.78805e-19 -0.00243899)
(-0.0580375 -2.5607e-19 -0.00266542)
(-0.0584282 1.87366e-20 -0.00288482)
(-0.058852 -2.41482e-19 -0.00309647)
(-0.0593068 -3.02372e-19 -0.00329907)
(-0.0597905 -2.78614e-19 -0.00349135)
(-0.0603014 -4.9549e-21 -0.00367206)
(-0.0608376 -2.73276e-19 -0.00383986)
(-0.0613969 -2.89126e-19 -0.00399333)
(-0.0619769 1.01913e-20 -0.00413092)
(-0.0625752 -2.52281e-19 -0.00425104)
(-0.0631893 -2.89949e-19 -0.00435209)
(-0.0638164 -2.7719e-19 -0.00443249)
(-0.0644534 -8.29167e-21 -0.00449058)
(-0.0650969 -3.51784e-19 -0.00452467)
(-0.0657434 2.12477e-20 -0.00453302)
(-0.066389 -3.50267e-19 -0.00451386)
(-0.0670295 6.27656e-19 -0.00446541)
(-0.0676607 9.04792e-20 -0.00438591)
(-0.0682778 -2.96631e-19 -0.00427364)
(-0.0688758 -3.72539e-19 -0.00412693)
(-0.0694495 -3.48614e-19 -0.0039442)
(-0.0699933 -2.61514e-20 -0.003724)
(-0.0705013 -3.58737e-19 -0.00346503)
(-0.0709671 -2.87725e-20 -0.00316614)
(-0.0713843 7.71693e-19 -0.00282637)
(-0.0717463 4.77696e-20 -0.00244496)
(-0.0720464 6.48206e-19 -0.00202148)
(-0.0722781 -1.00175e-20 -0.00155578)
(-0.0724351 2.01959e-20 -0.00104798)
(-0.0725114 8.20913e-19 -0.000498451)
(-0.0725014 5.4054e-20 9.20635e-05)
(-0.0723995 7.95128e-19 0.000722305)
(-0.0721997 4.92225e-20 0.00139003)
(-0.0718955 6.5687e-19 0.00209271)
(-0.0714808 -1.00928e-20 0.00282748)
(-0.0709498 -3.0484e-19 0.00359107)
(-0.0702975 6.25994e-19 0.00437971)
(-0.0695197 4.51568e-20 0.00518911)
(-0.0686129 6.46831e-19 0.00601441)
(-0.0675746 4.93076e-20 0.00685024)
(-0.0664034 6.54798e-19 0.00769072)
(-0.0650988 6.71803e-19 0.00852957)
(-0.0636611 6.06926e-19 0.00936024)
(-0.0620922 3.48023e-20 0.010176)
(-0.0603946 1.28911e-19 0.0109698)
(-0.0585723 4.88465e-19 0.011735)
(-0.0566305 8.58027e-21 0.0124647)
(-0.0545756 4.93872e-19 0.0131522)
(-0.0524148 3.80188e-20 0.0137912)
(-0.0501562 5.13117e-19 0.0143757)
(-0.0478094 4.95027e-20 0.0149004)
(-0.0453845 5.01693e-19 0.0153607)
(-0.0428923 -5.5672e-20 0.0157524)
(-0.0403443 -4.67042e-21 0.0160727)
(-0.037752 4.45293e-19 0.0163192)
(-0.0351271 4.16583e-19 0.0164909)
(-0.0324816 -4.43468e-20 0.0165874)
(-0.0298273 -3.97271e-20 0.0166089)
(-0.0271761 -1.16778e-19 0.0165566)
(-0.0245396 3.63283e-20 0.0164321)
(-0.0219296 3.48418e-20 0.0162377)
(-0.0193572 -1.43564e-19 0.0159765)
(-0.0168336 -1.23202e-19 0.0156523)
(-0.0143696 9.62412e-20 0.0152696)
(-0.0119757 2.30369e-20 0.0148333)
(-0.00966156 -1.87373e-19 0.0143492)
(-0.00743513 8.71085e-20 0.0138228)
(-0.00530005 1.84189e-20 0.0132587)
(-0.00325406 -6.18922e-20 0.0126598)
(-0.00129432 -5.05745e-20 0.0120292)
(0.000574534 3.55978e-20 0.0113727)
(0.00234301 1.67435e-20 0.0106967)
(0.00400514 -8.23973e-20 0.0100063)
(0.00555779 3.73917e-20 0.00930533)
(0.00700054 1.49879e-20 0.00859797)
(0.00833195 -5.77411e-20 0.00788646)
(0.00955231 -9.05187e-22 0.00717312)
(0.0106617 3.39033e-20 0.00645855)
(0.0116612 1.58534e-20 0.00574074)
(0.0125506 -1.30494e-20 0.00501901)
(0.0133275 2.89357e-20 0.00428937)
(0.0139857 1.22705e-22 0.00354292)
(0.0145178 -2.28807e-21 0.0027589)
(0.0148823 3.19717e-20 0.00205956)
(0.0152864 -5.32339e-21 0.000937266)
(0.0148867 1.84508e-20 0.000451531)
(0.0151297 -3.28074e-21 -0.00111113)
(0.0109249 -1.49774e-19 -0.00127105)
(0.00344184 -1.73478e-19 -0.00348682)
(-0.0198664 9.50618e-20 -0.0051724)
(-0.0371389 1.94053e-18 -0.0206816)
(-0.0966884 -2.26797e-19 -0.0238536)
(-0.0670926 -6.38237e-20 -0.0357939)
(-0.058664 1.16955e-19 -0.0486814)
(-0.0535642 8.40913e-21 -0.0562223)
(-0.0457829 -2.36849e-19 -0.0658186)
(-0.03748 -3.03859e-20 -0.0713178)
(-0.028285 3.59001e-19 -0.0764005)
(-0.0188758 -2.80692e-19 -0.0793567)
(-0.00938054 -1.6085e-19 -0.0813481)
(-0.0554161 -8.8701e-24 -0.000155769)
(-0.0559035 1.37609e-22 -0.000462097)
(-0.0560067 4.26992e-21 -0.000775778)
(-0.056103 2.46487e-19 -0.00108183)
(-0.0562206 1.81216e-20 -0.00138561)
(-0.0563757 -3.36011e-20 -0.00168487)
(-0.0565788 -3.52643e-20 -0.00197016)
(-0.0568274 1.12525e-20 -0.00224407)
(-0.0571126 2.37623e-19 -0.00251811)
(-0.0574362 2.6789e-20 -0.00278543)
(-0.0577984 2.46378e-19 -0.00304497)
(-0.0581971 4.26709e-20 -0.00329657)
(-0.0586301 2.42596e-19 -0.00353897)
(-0.0590953 -1.29365e-20 -0.00377086)
(-0.0595908 2.58856e-19 -0.00399089)
(-0.0601149 4.77989e-20 -0.00419761)
(-0.0606657 2.96873e-19 -0.00438953)
(-0.0612412 2.6537e-19 -0.00456503)
(-0.061839 3.18703e-19 -0.00472242)
(-0.0624569 3.17293e-19 -0.00485993)
(-0.0630923 2.88419e-19 -0.00497574)
(-0.0637424 2.60528e-19 -0.005068)
(-0.0644042 -2.89596e-19 -0.00513483)
(-0.0650744 -3.60904e-19 -0.00517426)
(-0.0657494 5.46052e-19 -0.00518429)
(-0.0664254 -5.75783e-19 -0.00516291)