/*--------------------------------*- C++ -*----------------------------------*\
| =========                 |                                                 |
| \\      /  F ield         | OpenFOAM: The Open Source CFD Toolbox           |
|  \\    /   O peration     | Version:  v2106                                 |
|   \\  /    A nd           | Website:  www.openfoam.com                      |
|    \\/     M anipulation  |                                                 |
\*---------------------------------------------------------------------------*/
FoamFile
{
    version     2.0;
    format      ascii;
    arch        "LSB;label=32;scalar=64";
    class       volScalarField;
    location    "0.4";
    object      k;
}
// * * * * * * * * * * * * * * * * * * * * * * * * * * * * * * * * * * * * * //

dimensions      [0 2 -2 0 0 0 0];

internalField   nonuniform List<scalar> 
29678
(
0.000165108
0.000207106
0.000212887
0.00021422
0.000214643
0.000214791
0.000214841
0.000214856
0.00021486
0.000214861
0.000214862
0.000214862
0.000214862
0.000214862
0.000214862
0.000214862
0.000214863
0.000214863
0.000214863
0.000214863
0.000214864
0.000214864
0.000214864
0.000214864
0.000214865
0.000214865
0.000214865
0.000214866
0.000214866
0.000214866
0.000214867
0.000214867
0.000214867
0.000214868
0.000214868
0.000214869
0.000214869
0.000214869
0.00021487
0.00021487
0.000214871
0.000214871
0.000214872
0.000214872
0.000214873
0.000214873
0.000214873
0.000214874
0.000214874
0.000214874
0.000214874
0.000214874
0.000214875
0.000214875
0.000214874
0.000214874
0.000214874
0.000214874
0.000214873
0.000214873
0.000214872
0.000214871
0.000214871
0.00021487
0.000214869
0.000214868
0.000214867
0.000214866
0.000214865
0.000214864
0.000214863
0.000214862
0.000214862
0.000214862
0.000214862
0.000214863
0.000214864
0.000214865
0.000214868
0.000214871
0.000214875
0.00021488
0.000214886
0.000214892
0.0002149
0.000214908
0.000214918
0.000214928
0.000214939
0.000214951
0.000214963
0.000214975
0.000214987
0.000214999
0.000215011
0.00021502
0.000215024
0.000215028
0.000215192
0.000217397
0.000217448
0.000216787
0.000217641
0.000217076
0.00021686
0.000216424
0.000216094
0.000215773
0.00021546
0.000215254
0.000165097
0.000207104
0.000212886
0.00021422
0.000214643
0.000214791
0.000214841
0.000214856
0.00021486
0.000214862
0.000214862
0.000214862
0.000214862
0.000214863
0.000214863
0.000214863
0.000214863
0.000214864
0.000214864
0.000214864
0.000214865
0.000214865
0.000214865
0.000214866
0.000214866
0.000214867
0.000214867
0.000214868
0.000214868
0.000214869
0.000214869
0.00021487
0.00021487
0.000214871
0.000214872
0.000214872
0.000214873
0.000214874
0.000214874
0.000214875
0.000214876
0.000214876
0.000214877
0.000214878
0.000214878
0.000214879
0.000214879
0.00021488
0.00021488
0.000214881
0.000214881
0.000214881
0.000214881
0.000214881
0.000214881
0.000214881
0.000214881
0.00021488
0.00021488
0.000214879
0.000214878
0.000214877
0.000214876
0.000214874
0.000214873
0.000214872
0.00021487
0.000214868
0.000214867
0.000214866
0.000214864
0.000214863
0.000214863
0.000214862
0.000214863
0.000214864
0.000214865
0.000214868
0.000214872
0.000214876
0.000214882
0.00021489
0.000214898
0.000214908
0.00021492
0.000214932
0.000214947
0.000214962
0.000214979
0.000214996
0.000215014
0.000215033
0.00021505
0.000215066
0.00021508
0.000215092
0.000215097
0.000215091
0.000215188
0.000216665
0.00021684
0.000217537
0.000217414
0.000216983
0.000216788
0.000216024
0.000216001
0.000215353
0.000215259
0.000215028
0.000165097
0.000207103
0.000212886
0.00021422
0.000214643
0.000214791
0.000214841
0.000214856
0.000214861
0.000214862
0.000214862
0.000214862
0.000214863
0.000214863
0.000214863
0.000214863
0.000214864
0.000214864
0.000214864
0.000214865
0.000214865
0.000214866
0.000214866
0.000214866
0.000214867
0.000214868
0.000214868
0.000214869
0.000214869
0.00021487
0.000214871
0.000214871
0.000214872
0.000214873
0.000214873
0.000214874
0.000214875
0.000214876
0.000214876
0.000214877
0.000214878
0.000214879
0.00021488
0.00021488
0.000214881
0.000214882
0.000214883
0.000214883
0.000214884
0.000214884
0.000214884
0.000214885
0.000214885
0.000214885
0.000214885
0.000214885
0.000214884
0.000214884
0.000214883
0.000214882
0.000214881
0.00021488
0.000214879
0.000214877
0.000214876
0.000214874
0.000214872
0.00021487
0.000214869
0.000214867
0.000214866
0.000214865
0.000214864
0.000214864
0.000214864
0.000214865
0.000214868
0.000214871
0.000214875
0.000214881
0.000214888
0.000214896
0.000214907
0.000214918
0.000214932
0.000214947
0.000214964
0.000214982
0.000215002
0.000215023
0.000215044
0.000215064
0.000215082
0.000215099
0.000215114
0.000215127
0.000215132
0.000215118
0.000215185
0.000216564
0.00021665
0.000217213
0.00021593
0.000216754
0.000216245
0.000215831
0.000215709
0.000215301
0.000215237
0.000215044
0.000165097
0.000207104
0.000212886
0.00021422
0.000214643
0.000214792
0.000214841
0.000214856
0.000214861
0.000214862
0.000214862
0.000214862
0.000214863
0.000214863
0.000214863
0.000214863
0.000214864
0.000214864
0.000214865
0.000214865
0.000214865
0.000214866
0.000214866
0.000214867
0.000214867
0.000214868
0.000214868
0.000214869
0.00021487
0.00021487
0.000214871
0.000214872
0.000214872
0.000214873
0.000214874
0.000214875
0.000214876
0.000214876
0.000214877
0.000214878
0.000214879
0.00021488
0.000214881
0.000214881
0.000214882
0.000214883
0.000214884
0.000214884
0.000214885
0.000214885
0.000214886
0.000214886
0.000214886
0.000214886
0.000214886
0.000214886
0.000214886
0.000214885
0.000214885
0.000214884
0.000214883
0.000214882
0.00021488
0.000214879
0.000214877
0.000214876
0.000214874
0.000214872
0.00021487
0.000214869
0.000214867
0.000214866
0.000214866
0.000214866
0.000214866
0.000214868
0.00021487
0.000214874
0.000214879
0.000214885
0.000214892
0.000214902
0.000214913
0.000214925
0.00021494
0.000214956
0.000214974
0.000214994
0.000215015
0.000215037
0.000215058
0.000215078
0.000215097
0.000215114
0.00021513
0.000215143
0.000215147
0.00021513
0.00021517
0.000216352
0.00021643
0.000216478
0.00021573
0.00021653
0.000216029
0.00021595
0.000215723
0.000215453
0.000215324
0.000215186
0.000165097
0.000207104
0.000212886
0.00021422
0.000214643
0.000214792
0.000214841
0.000214857
0.000214861
0.000214862
0.000214862
0.000214862
0.000214863
0.000214863
0.000214863
0.000214864
0.000214864
0.000214864
0.000214865
0.000214865
0.000214865
0.000214866
0.000214866
0.000214867
0.000214867
0.000214868
0.000214869
0.000214869
0.00021487
0.000214871
0.000214871
0.000214872
0.000214873
0.000214873
0.000214874
0.000214875
0.000214876
0.000214877
0.000214878
0.000214878
0.000214879
0.00021488
0.000214881
0.000214882
0.000214883
0.000214883
0.000214884
0.000214885
0.000214886
0.000214886
0.000214887
0.000214887
0.000214887
0.000214887
0.000214887
0.000214887
0.000214887
0.000214887
0.000214886
0.000214885
0.000214884
0.000214883
0.000214882
0.00021488
0.000214879
0.000214877
0.000214876
0.000214874
0.000214872
0.000214871
0.00021487
0.000214869
0.000214869
0.000214869
0.00021487
0.000214871
0.000214874
0.000214878
0.000214883
0.000214889
0.000214897
0.000214907
0.000214919
0.000214932
0.000214947
0.000214964
0.000214983
0.000215003
0.000215025
0.000215048
0.000215069
0.000215089
0.000215108
0.000215125
0.00021514
0.000215153
0.000215157
0.000215139
0.000215164
0.000216246
0.000216266
0.000216257
0.000215731
0.000216349
0.000215673
0.000215844
0.000215559
0.000215467
0.000215338
0.00021525
0.000165096
0.000207104
0.000212886
0.00021422
0.000214643
0.000214792
0.000214841
0.000214857
0.000214861
0.000214862
0.000214862
0.000214863
0.000214863
0.000214863
0.000214863
0.000214864
0.000214864
0.000214864
0.000214865
0.000214865
0.000214866
0.000214866
0.000214866
0.000214867
0.000214868
0.000214868
0.000214869
0.000214869
0.00021487
0.000214871
0.000214871
0.000214872
0.000214873
0.000214874
0.000214874
0.000214875
0.000214876
0.000214877
0.000214878
0.000214879
0.00021488
0.00021488
0.000214881
0.000214882
0.000214883
0.000214884
0.000214885
0.000214885
0.000214886
0.000214887
0.000214887
0.000214888
0.000214888
0.000214888
0.000214888
0.000214888
0.000214888
0.000214888
0.000214887
0.000214886
0.000214886
0.000214885
0.000214883
0.000214882
0.000214881
0.000214879
0.000214878
0.000214876
0.000214875
0.000214874
0.000214873
0.000214872
0.000214872
0.000214872
0.000214873
0.000214875
0.000214878
0.000214883
0.000214888
0.000214895
0.000214903
0.000214914
0.000214926
0.00021494
0.000214956
0.000214973
0.000214993
0.000215014
0.000215037
0.000215059
0.00021508
0.0002151
0.000215118
0.000215136
0.000215151
0.000215164
0.000215168
0.00021515
0.000215162
0.000216143
0.000216081
0.000215974
0.000215585
0.000216111
0.000215581
0.000215783
0.000215557
0.000215528
0.000215397
0.000215307
0.000165095
0.000207104
0.000212886
0.000214221
0.000214644
0.000214792
0.000214842
0.000214857
0.000214861
0.000214862
0.000214862
0.000214863
0.000214863
0.000214863
0.000214863
0.000214864
0.000214864
0.000214864
0.000214865
0.000214865
0.000214866
0.000214866
0.000214867
0.000214867
0.000214868
0.000214868
0.000214869
0.000214869
0.00021487
0.000214871
0.000214871
0.000214872
0.000214873
0.000214874
0.000214875
0.000214875
0.000214876
0.000214877
0.000214878
0.000214879
0.00021488
0.000214881
0.000214882
0.000214883
0.000214883
0.000214884
0.000214885
0.000214886
0.000214887
0.000214887
0.000214888
0.000214888
0.000214889
0.000214889
0.000214889
0.000214889
0.000214889
0.000214889
0.000214889
0.000214888
0.000214887
0.000214886
0.000214885
0.000214884
0.000214883
0.000214882
0.000214881
0.000214879
0.000214878
0.000214877
0.000214876
0.000214876
0.000214876
0.000214877
0.000214878
0.000214881
0.000214884
0.000214888
0.000214894
0.000214902
0.000214911
0.000214922
0.000214935
0.000214949
0.000214966
0.000214984
0.000215005
0.000215027
0.00021505
0.000215071
0.000215092
0.000215112
0.000215131
0.000215148
0.000215164
0.000215177
0.000215181
0.000215163
0.000215165
0.000216065
0.000215887
0.000215802
0.000215541
0.000215889
0.000215521
0.000215728
0.000215535
0.000215556
0.00021543
0.000215319
0.000165094
0.000207104
0.000212887
0.000214221
0.000214644
0.000214792
0.000214842
0.000214857
0.000214861
0.000214862
0.000214863
0.000214863
0.000214863
0.000214863
0.000214864
0.000214864
0.000214864
0.000214865
0.000214865
0.000214865
0.000214866
0.000214866
0.000214867
0.000214867
0.000214868
0.000214868
0.000214869
0.00021487
0.00021487
0.000214871
0.000214872
0.000214872
0.000214873
0.000214874
0.000214875
0.000214876
0.000214877
0.000214877
0.000214878
0.000214879
0.00021488
0.000214881
0.000214882
0.000214883
0.000214884
0.000214885
0.000214886
0.000214886
0.000214887
0.000214888
0.000214889
0.000214889
0.00021489
0.00021489
0.00021489
0.000214891
0.000214891
0.00021489
0.00021489
0.00021489
0.000214889
0.000214889
0.000214888
0.000214887
0.000214886
0.000214885
0.000214884
0.000214883
0.000214882
0.000214881
0.000214881
0.000214881
0.000214881
0.000214882
0.000214884
0.000214887
0.000214891
0.000214896
0.000214902
0.00021491
0.00021492
0.000214932
0.000214945
0.000214961
0.000214978
0.000214998
0.000215019
0.000215042
0.000215064
0.000215086
0.000215107
0.000215127
0.000215146
0.000215163
0.000215179
0.000215193
0.000215197
0.000215179
0.000215172
0.000216002
0.000215786
0.000215709
0.000215522
0.000215707
0.000215511
0.000215676
0.000215542
0.000215571
0.000215463
0.000215329
0.000165093
0.000207104
0.000212887
0.000214221
0.000214644
0.000214792
0.000214842
0.000214857
0.000214861
0.000214862
0.000214863
0.000214863
0.000214863
0.000214863
0.000214864
0.000214864
0.000214864
0.000214865
0.000214865
0.000214866
0.000214866
0.000214866
0.000214867
0.000214867
0.000214868
0.000214869
0.000214869
0.00021487
0.00021487
0.000214871
0.000214872
0.000214873
0.000214873
0.000214874
0.000214875
0.000214876
0.000214877
0.000214878
0.000214879
0.00021488
0.000214881
0.000214882
0.000214883
0.000214883
0.000214884
0.000214885
0.000214886
0.000214887
0.000214888
0.000214889
0.00021489
0.00021489
0.000214891
0.000214891
0.000214892
0.000214892
0.000214892
0.000214892
0.000214892
0.000214892
0.000214892
0.000214891
0.00021489
0.00021489
0.000214889
0.000214888
0.000214887
0.000214887
0.000214886
0.000214886
0.000214886
0.000214886
0.000214887
0.000214889
0.000214891
0.000214894
0.000214899
0.000214904
0.000214912
0.00021492
0.000214931
0.000214943
0.000214958
0.000214974
0.000214993
0.000215014
0.000215036
0.000215059
0.000215082
0.000215103
0.000215124
0.000215144
0.000215163
0.000215181
0.000215197
0.000215211
0.000215215
0.000215198
0.000215183
0.000215956
0.000215742
0.000215688
0.000215501
0.000215598
0.000215524
0.000215633
0.000215564
0.000215578
0.000215494
0.000215349
0.000165091
0.000207104
0.000212887
0.000214221
0.000214644
0.000214792
0.000214842
0.000214857
0.000214861
0.000214862
0.000214863
0.000214863
0.000214863
0.000214864
0.000214864
0.000214864
0.000214865
0.000214865
0.000214865
0.000214866
0.000214866
0.000214867
0.000214867
0.000214868
0.000214868
0.000214869
0.000214869
0.00021487
0.000214871
0.000214871
0.000214872
0.000214873
0.000214874
0.000214874
0.000214875
0.000214876
0.000214877
0.000214878
0.000214879
0.00021488
0.000214881
0.000214882
0.000214883
0.000214884
0.000214885
0.000214886
0.000214887
0.000214888
0.000214889
0.00021489
0.000214891
0.000214891
0.000214892
0.000214893
0.000214893
0.000214894
0.000214894
0.000214894
0.000214894
0.000214894
0.000214894
0.000214894
0.000214894
0.000214893
0.000214893
0.000214892
0.000214892
0.000214891
0.000214891
0.000214891
0.000214892
0.000214893
0.000214894
0.000214896
0.000214899
0.000214903
0.000214908
0.000214915
0.000214923
0.000214932
0.000214944
0.000214957
0.000214973
0.000214991
0.000215011
0.000215033
0.000215056
0.000215078
0.000215101
0.000215122
0.000215144
0.000215164
0.000215183
0.000215201
0.000215217
0.000215231
0.000215236
0.00021522
0.000215197
0.000215923
0.000215728
0.000215697
0.000215496
0.00021554
0.00021554
0.000215611
0.000215589
0.00021559
0.000215521
0.000215369
0.00016509
0.000207104
0.000212887
0.000214221
0.000214644
0.000214792
0.000214842
0.000214857
0.000214862
0.000214863
0.000214863
0.000214863
0.000214864
0.000214864
0.000214864
0.000214864
0.000214865
0.000214865
0.000214865
0.000214866
0.000214866
0.000214867
0.000214867
0.000214868
0.000214868
0.000214869
0.00021487
0.00021487
0.000214871
0.000214872
0.000214872
0.000214873
0.000214874
0.000214875
0.000214876
0.000214877
0.000214877
0.000214878
0.000214879
0.00021488
0.000214881
0.000214883
0.000214884
0.000214885
0.000214886
0.000214887
0.000214888
0.000214889
0.00021489
0.000214891
0.000214892
0.000214893
0.000214893
0.000214894
0.000214895
0.000214896
0.000214896
0.000214896
0.000214897
0.000214897
0.000214897
0.000214897
0.000214897
0.000214897
0.000214897
0.000214897
0.000214897
0.000214897
0.000214897
0.000214898
0.000214899
0.0002149
0.000214902
0.000214905
0.000214908
0.000214913
0.000214919
0.000214927
0.000214936
0.000214946
0.000214959
0.000214974
0.000214991
0.00021501
0.000215032
0.000215054
0.000215077
0.0002151
0.000215122
0.000215144
0.000215165
0.000215186
0.000215205
0.000215224
0.00021524
0.000215255
0.000215259
0.000215245
0.000215215
0.000215905
0.000215731
0.000215717
0.000215513
0.000215519
0.000215561
0.000215611
0.000215615
0.00021561
0.000215547
0.000215392
0.000165088
0.000207105
0.000212887
0.000214221
0.000214644
0.000214793
0.000214842
0.000214858
0.000214862
0.000214863
0.000214863
0.000214864
0.000214864
0.000214864
0.000214864
0.000214865
0.000214865
0.000214865
0.000214866
0.000214866
0.000214867
0.000214867
0.000214868
0.000214868
0.000214869
0.000214869
0.00021487
0.00021487
0.000214871
0.000214872
0.000214873
0.000214873
0.000214874
0.000214875
0.000214876
0.000214877
0.000214878
0.000214879
0.00021488
0.000214881
0.000214882
0.000214883
0.000214884
0.000214885
0.000214886
0.000214888
0.000214889
0.00021489
0.000214891
0.000214892
0.000214893
0.000214894
0.000214895
0.000214896
0.000214897
0.000214898
0.000214898
0.000214899
0.000214899
0.0002149
0.0002149
0.000214901
0.000214901
0.000214901
0.000214902
0.000214902
0.000214902
0.000214903
0.000214904
0.000214905
0.000214906
0.000214908
0.000214911
0.000214915
0.000214919
0.000214925
0.000214932
0.00021494
0.000214951
0.000214963
0.000214977
0.000214993
0.000215012
0.000215033
0.000215055
0.000215078
0.000215101
0.000215123
0.000215146
0.000215168
0.00021519
0.000215211
0.000215231
0.000215249
0.000215267
0.000215282
0.000215286
0.000215273
0.000215236
0.000215903
0.000215744
0.000215744
0.000215546
0.000215523
0.000215586
0.000215629
0.000215643
0.000215639
0.000215576
0.000215417
0.000165086
0.000207105
0.000212887
0.000214221
0.000214645
0.000214793
0.000214843
0.000214858
0.000214862
0.000214863
0.000214863
0.000214864
0.000214864
0.000214864
0.000214865
0.000214865
0.000214865
0.000214866
0.000214866
0.000214866
0.000214867
0.000214867
0.000214868
0.000214868
0.000214869
0.000214869
0.00021487
0.000214871
0.000214871
0.000214872
0.000214873
0.000214874
0.000214875
0.000214875
0.000214876
0.000214877
0.000214878
0.000214879
0.00021488
0.000214881
0.000214883
0.000214884
0.000214885
0.000214886
0.000214887
0.000214888
0.00021489
0.000214891
0.000214892
0.000214893
0.000214894
0.000214896
0.000214897
0.000214898
0.000214899
0.0002149
0.000214901
0.000214902
0.000214903
0.000214903
0.000214904
0.000214905
0.000214905
0.000214906
0.000214907
0.000214908
0.000214909
0.00021491
0.000214911
0.000214913
0.000214915
0.000214918
0.000214922
0.000214926
0.000214932
0.000214939
0.000214947
0.000214957
0.000214968
0.000214982
0.000214998
0.000215016
0.000215036
0.000215058
0.00021508
0.000215103
0.000215126
0.000215149
0.000215172
0.000215195
0.000215217
0.000215239
0.000215259
0.000215278
0.000215296
0.000215312
0.000215317
0.000215305
0.000215261
0.000215914
0.000215768
0.000215778
0.000215588
0.000215548
0.000215618
0.000215661
0.000215678
0.000215674
0.000215609
0.000215445
0.000165083
0.000207105
0.000212887
0.000214222
0.000214645
0.000214793
0.000214843
0.000214858
0.000214862
0.000214863
0.000214864
0.000214864
0.000214864
0.000214864
0.000214865
0.000214865
0.000214865
0.000214866
0.000214866
0.000214867
0.000214867
0.000214867
0.000214868
0.000214869
0.000214869
0.00021487
0.00021487
0.000214871
0.000214872
0.000214872
0.000214873
0.000214874
0.000214875
0.000214876
0.000214877
0.000214878
0.000214879
0.00021488
0.000214881
0.000214882
0.000214883
0.000214884
0.000214886
0.000214887
0.000214888
0.000214889
0.000214891
0.000214892
0.000214893
0.000214895
0.000214896
0.000214897
0.000214899
0.0002149
0.000214901
0.000214902
0.000214904
0.000214905
0.000214906
0.000214907
0.000214908
0.000214909
0.00021491
0.000214912
0.000214913
0.000214914
0.000214916
0.000214918
0.00021492
0.000214922
0.000214925
0.000214929
0.000214934
0.000214939
0.000214946
0.000214954
0.000214964
0.000214975
0.000214989
0.000215004
0.000215022
0.000215042
0.000215063
0.000215085
0.000215108
0.000215131
0.000215154
0.000215178
0.000215202
0.000215225
0.000215248
0.00021527
0.000215291
0.000215311
0.00021533
0.000215347
0.000215351
0.000215342
0.000215289
0.000215937
0.000215801
0.00021582
0.000215639
0.000215586
0.00021566
0.000215703
0.000215721
0.000215717
0.000215649
0.000215478
0.000165081
0.000207105
0.000212888
0.000214222
0.000214645
0.000214793
0.000214843
0.000214858
0.000214862
0.000214864
0.000214864
0.000214864
0.000214864
0.000214865
0.000214865
0.000214865
0.000214866
0.000214866
0.000214866
0.000214867
0.000214867
0.000214868
0.000214868
0.000214869
0.000214869
0.00021487
0.000214871
0.000214871
0.000214872
0.000214873
0.000214874
0.000214874
0.000214875
0.000214876
0.000214877
0.000214878
0.000214879
0.00021488
0.000214881
0.000214883
0.000214884
0.000214885
0.000214886
0.000214888
0.000214889
0.00021489
0.000214892
0.000214893
0.000214895
0.000214896
0.000214898
0.000214899
0.000214901
0.000214902
0.000214904
0.000214905
0.000214907
0.000214908
0.00021491
0.000214911
0.000214913
0.000214914
0.000214916
0.000214918
0.000214919
0.000214921
0.000214924
0.000214926
0.000214929
0.000214933
0.000214937
0.000214942
0.000214948
0.000214954
0.000214963
0.000214972
0.000214984
0.000214997
0.000215012
0.00021503
0.000215049
0.00021507
0.000215091
0.000215114
0.000215137
0.000215161
0.000215185
0.000215209
0.000215234
0.000215258
0.000215282
0.000215305
0.000215327
0.000215348
0.000215367
0.000215385
0.00021539
0.000215384
0.000215321
0.00021597
0.000215845
0.000215873
0.000215697
0.000215635
0.000215712
0.000215755
0.000215772
0.000215767
0.000215695
0.000215516
0.000165078
0.000207105
0.000212888
0.000214222
0.000214645
0.000214794
0.000214843
0.000214858
0.000214863
0.000214864
0.000214864
0.000214864
0.000214865
0.000214865
0.000214865
0.000214866
0.000214866
0.000214866
0.000214867
0.000214867
0.000214868
0.000214868
0.000214869
0.000214869
0.00021487
0.00021487
0.000214871
0.000214872
0.000214872
0.000214873
0.000214874
0.000214875
0.000214876
0.000214877
0.000214878
0.000214879
0.00021488
0.000214881
0.000214882
0.000214883
0.000214885
0.000214886
0.000214887
0.000214889
0.00021489
0.000214892
0.000214893
0.000214895
0.000214896
0.000214898
0.0002149
0.000214901
0.000214903
0.000214905
0.000214906
0.000214908
0.00021491
0.000214912
0.000214914
0.000214916
0.000214918
0.00021492
0.000214922
0.000214924
0.000214927
0.00021493
0.000214933
0.000214936
0.00021494
0.000214945
0.00021495
0.000214956
0.000214963
0.000214972
0.000214981
0.000214993
0.000215006
0.000215022
0.000215039
0.000215058
0.000215078
0.000215099
0.000215121
0.000215144
0.000215169
0.000215193
0.000215218
0.000215244
0.000215269
0.000215294
0.000215319
0.000215343
0.000215367
0.000215389
0.000215409
0.000215429
0.000215434
0.000215431
0.000215358
0.000216013
0.000215899
0.000215935
0.00021576
0.000215692
0.000215773
0.000215817
0.000215833
0.000215826
0.000215748
0.000215559
0.000165075
0.000207105
0.000212888
0.000214222
0.000214645
0.000214794
0.000214844
0.000214859
0.000214863
0.000214864
0.000214864
0.000214865
0.000214865
0.000214865
0.000214866
0.000214866
0.000214866
0.000214867
0.000214867
0.000214867
0.000214868
0.000214868
0.000214869
0.000214869
0.00021487
0.000214871
0.000214871
0.000214872
0.000214873
0.000214874
0.000214874
0.000214875
0.000214876
0.000214877
0.000214878
0.000214879
0.00021488
0.000214882
0.000214883
0.000214884
0.000214885
0.000214887
0.000214888
0.00021489
0.000214891
0.000214893
0.000214894
0.000214896
0.000214898
0.0002149
0.000214902
0.000214903
0.000214905
0.000214907
0.000214909
0.000214911
0.000214914
0.000214916
0.000214918
0.000214921
0.000214923
0.000214926
0.000214929
0.000214932
0.000214935
0.000214938
0.000214942
0.000214947
0.000214952
0.000214958
0.000214964
0.000214972
0.000214981
0.000214991
0.000215003
0.000215016
0.000215032
0.000215049
0.000215067
0.000215087
0.000215108
0.00021513
0.000215153
0.000215178
0.000215203
0.000215229
0.000215255
0.000215281
0.000215308
0.000215335
0.000215361
0.000215386
0.000215411
0.000215434
0.000215456
0.000215478
0.000215483
0.000215484
0.000215401
0.000216064
0.000215961
0.000216006
0.000215837
0.000215764
0.000215847
0.000215889
0.000215903
0.000215894
0.000215809
0.000215608
0.000165072
0.000207105
0.000212888
0.000214222
0.000214646
0.000214794
0.000214844
0.000214859
0.000214863
0.000214864
0.000214865
0.000214865
0.000214865
0.000214866
0.000214866
0.000214866
0.000214866
0.000214867
0.000214867
0.000214868
0.000214868
0.000214869
0.000214869
0.00021487
0.00021487
0.000214871
0.000214872
0.000214872
0.000214873
0.000214874
0.000214875
0.000214876
0.000214877
0.000214878
0.000214879
0.00021488
0.000214881
0.000214882
0.000214883
0.000214885
0.000214886
0.000214888
0.000214889
0.000214891
0.000214892
0.000214894
0.000214896
0.000214898
0.0002149
0.000214902
0.000214904
0.000214906
0.000214908
0.00021491
0.000214913
0.000214915
0.000214918
0.00021492
0.000214923
0.000214926
0.000214929
0.000214932
0.000214936
0.00021494
0.000214944
0.000214948
0.000214953
0.000214959
0.000214965
0.000214973
0.000214981
0.00021499
0.000215001
0.000215013
0.000215027
0.000215043
0.000215059
0.000215078
0.000215097
0.000215118
0.00021514
0.000215163
0.000215188
0.000215213
0.00021524
0.000215267
0.000215295
0.000215323
0.000215351
0.000215379
0.000215407
0.000215434
0.000215461
0.000215486
0.000215509
0.000215533
0.000215538
0.000215544
0.000215449
0.000216124
0.000216032
0.000216089
0.000215931
0.000215846
0.000215932
0.000215972
0.000215984
0.00021597
0.000215878
0.000215664
0.000165068
0.000207105
0.000212888
0.000214223
0.000214646
0.000214794
0.000214844
0.000214859
0.000214863
0.000214865
0.000214865
0.000214865
0.000214866
0.000214866
0.000214866
0.000214866
0.000214867
0.000214867
0.000214868
0.000214868
0.000214868
0.000214869
0.00021487
0.00021487
0.000214871
0.000214871
0.000214872
0.000214873
0.000214874
0.000214874
0.000214875
0.000214876
0.000214877
0.000214878
0.000214879
0.00021488
0.000214882
0.000214883
0.000214884
0.000214886
0.000214887
0.000214889
0.00021489
0.000214892
0.000214894
0.000214895
0.000214897
0.000214899
0.000214901
0.000214904
0.000214906
0.000214908
0.000214911
0.000214913
0.000214916
0.000214919
0.000214922
0.000214925
0.000214928
0.000214932
0.000214935
0.000214939
0.000214944
0.000214949
0.000214954
0.000214959
0.000214966
0.000214973
0.00021498
0.000214989
0.000214999
0.00021501
0.000215023
0.000215038
0.000215053
0.00021507
0.000215088
0.000215107
0.000215128
0.00021515
0.000215174
0.000215199
0.000215225
0.000215252
0.00021528
0.000215309
0.000215338
0.000215368
0.000215398
0.000215429
0.000215458
0.000215488
0.000215516
0.000215543
0.000215569
0.000215595
0.0002156
0.000215613
0.000215503
0.000216193
0.000216113
0.000216183
0.000216035
0.000215938
0.000216028
0.000216066
0.000216074
0.000216057
0.000215955
0.000215727
0.000165065
0.000207105
0.000212888
0.000214223
0.000214646
0.000214795
0.000214844
0.00021486
0.000214864
0.000214865
0.000214865
0.000214866
0.000214866
0.000214866
0.000214866
0.000214867
0.000214867
0.000214867
0.000214868
0.000214868
0.000214869
0.000214869
0.00021487
0.00021487
0.000214871
0.000214872
0.000214872
0.000214873
0.000214874
0.000214875
0.000214876
0.000214877
0.000214878
0.000214879
0.00021488
0.000214881
0.000214882
0.000214884
0.000214885
0.000214886
0.000214888
0.00021489
0.000214891
0.000214893
0.000214895
0.000214897
0.000214899
0.000214901
0.000214903
0.000214906
0.000214908
0.000214911
0.000214914
0.000214917
0.00021492
0.000214923
0.000214926
0.00021493
0.000214934
0.000214938
0.000214942
0.000214947
0.000214953
0.000214958
0.000214964
0.000214971
0.000214979
0.000214987
0.000214997
0.000215008
0.00021502
0.000215033
0.000215047
0.000215063
0.00021508
0.000215098
0.000215117
0.000215138
0.000215161
0.000215185
0.00021521
0.000215236
0.000215264
0.000215293
0.000215323
0.000215354
0.000215386
0.000215418
0.000215451
0.000215483
0.000215516
0.000215547
0.000215578
0.000215608
0.000215635
0.000215665
0.00021567
0.000215691
0.000215566
0.000216269
0.000216204
0.00021629
0.000216156
0.000216043
0.000216136
0.000216171
0.000216175
0.000216153
0.000216041
0.000215797
0.000165061
0.000207105
0.000212889
0.000214223
0.000214647
0.000214795
0.000214845
0.00021486
0.000214864
0.000214865
0.000214866
0.000214866
0.000214866
0.000214866
0.000214867
0.000214867
0.000214867
0.000214868
0.000214868
0.000214869
0.000214869
0.00021487
0.00021487
0.000214871
0.000214871
0.000214872
0.000214873
0.000214874
0.000214874
0.000214875
0.000214876
0.000214877
0.000214878
0.000214879
0.00021488
0.000214882
0.000214883
0.000214884
0.000214886
0.000214887
0.000214889
0.000214891
0.000214892
0.000214894
0.000214896
0.000214898
0.000214901
0.000214903
0.000214905
0.000214908
0.000214911
0.000214914
0.000214917
0.00021492
0.000214924
0.000214927
0.000214931
0.000214935
0.00021494
0.000214945
0.00021495
0.000214956
0.000214962
0.000214969
0.000214976
0.000214984
0.000214994
0.000215004
0.000215015
0.000215028
0.000215042
0.000215056
0.000215072
0.000215089
0.000215108
0.000215127
0.000215149
0.000215171
0.000215196
0.000215221
0.000215248
0.000215277
0.000215307
0.000215338
0.000215371
0.000215404
0.000215438
0.000215473
0.000215509
0.000215544
0.000215579
0.000215614
0.000215647
0.00021568
0.00021571
0.000215744
0.000215748
0.000215779
0.000215637
0.000216354
0.000216305
0.000216409
0.000216298
0.000216163
0.000216258
0.000216289
0.000216287
0.000216259
0.000216136
0.000215874
0.000165057
0.000207105
0.000212889
0.000214223
0.000214647
0.000214795
0.000214845
0.00021486
0.000214864
0.000214866
0.000214866
0.000214866
0.000214867
0.000214867
0.000214867
0.000214867
0.000214868
0.000214868
0.000214869
0.000214869
0.00021487
0.00021487
0.000214871
0.000214871
0.000214872
0.000214873
0.000214873
0.000214874
0.000214875
0.000214876
0.000214877
0.000214878
0.000214879
0.00021488
0.000214881
0.000214882
0.000214884
0.000214885
0.000214887
0.000214888
0.00021489
0.000214892
0.000214894
0.000214896
0.000214898
0.0002149
0.000214902
0.000214905
0.000214908
0.00021491
0.000214913
0.000214917
0.00021492
0.000214924
0.000214928
0.000214932
0.000214936
0.000214941
0.000214946
0.000214952
0.000214958
0.000214965
0.000214972
0.00021498
0.000214989
0.000214999
0.00021501
0.000215022
0.000215035
0.000215049
0.000215064
0.000215081
0.000215098
0.000215117
0.000215137
0.000215158
0.000215181
0.000215206
0.000215232
0.00021526
0.00021529
0.000215321
0.000215353
0.000215387
0.000215422
0.000215459
0.000215496
0.000215534
0.000215573
0.000215611
0.00021565
0.000215688
0.000215725
0.000215761
0.000215795
0.000215833
0.000215837
0.00021588
0.000215718
0.000216448
0.000216417
0.000216536
0.000216465
0.000216301
0.000216395
0.00021642
0.000216412
0.000216377
0.000216241
0.000215959
0.000165053
0.000207106
0.000212889
0.000214224
0.000214647
0.000214796
0.000214845
0.000214861
0.000214865
0.000214866
0.000214866
0.000214867
0.000214867
0.000214867
0.000214867
0.000214868
0.000214868
0.000214869
0.000214869
0.000214869
0.00021487
0.00021487
0.000214871