/*--------------------------------*- C++ -*----------------------------------*\
| =========                 |                                                 |
| \\      /  F ield         | OpenFOAM: The Open Source CFD Toolbox           |
|  \\    /   O peration     | Version:  v2106                                 |
|   \\  /    A nd           | Website:  www.openfoam.com                      |
|    \\/     M anipulation  |                                                 |
\*---------------------------------------------------------------------------*/
FoamFile
{
    version     2.0;
    format      ascii;
    arch        "LSB;label=32;scalar=64";
    class       volScalarField;
    location    "0.4";
    object      nut;
}
// * * * * * * * * * * * * * * * * * * * * * * * * * * * * * * * * * * * * * //

dimensions      [0 2 -1 0 0 0 0];

internalField   nonuniform List<scalar> 
29678
(
2.12736e-05
0.000195966
0.000630952
0.00108392
0.00133753
0.00143288
0.00146018
0.00146656
0.00146783
0.00146805
0.00146808
0.00146808
0.00146809
0.00146809
0.00146809
0.00146809
0.00146809
0.00146809
0.00146809
0.00146809
0.00146809
0.00146809
0.00146809
0.00146809
0.00146809
0.00146809
0.0014681
0.0014681
0.0014681
0.0014681
0.0014681
0.0014681
0.0014681
0.0014681
0.00146811
0.00146811
0.00146811
0.00146811
0.00146811
0.00146811
0.00146811
0.00146812
0.00146812
0.00146812
0.00146812
0.00146812
0.00146812
0.00146812
0.00146812
0.00146812
0.00146813
0.00146813
0.00146813
0.00146813
0.00146813
0.00146813
0.00146813
0.00146813
0.00146813
0.00146813
0.00146813
0.00146814
0.00146814
0.00146814
0.00146814
0.00146814
0.00146813
0.00146812
0.00146812
0.00146811
0.0014681
0.0014681
0.0014681
0.00146809
0.00146809
0.00146809
0.0014681
0.0014681
0.00146811
0.00146812
0.00146813
0.00146815
0.00146816
0.00146818
0.00146821
0.00146824
0.00146827
0.0014683
0.00146833
0.00146837
0.00146841
0.00146845
0.00146849
0.00146852
0.00146856
0.00146859
0.00146855
0.0014675
0.00144982
1.31919e-05
1.11924e-05
8.14756e-05
2.45651e-05
2.59408e-05
5.53533e-05
5.59945e-05
8.0715e-05
0.000102343
0.000148759
0.00019401
2.12729e-05
0.000195945
0.000630907
0.00108388
0.00133751
0.00143288
0.00146018
0.00146656
0.00146783
0.00146805
0.00146808
0.00146809
0.00146809
0.00146809
0.00146809
0.00146809
0.00146809
0.00146809
0.00146809
0.00146809
0.00146809
0.00146809
0.0014681
0.0014681
0.0014681
0.0014681
0.0014681
0.0014681
0.0014681
0.00146811
0.00146811
0.00146811
0.00146811
0.00146811
0.00146811
0.00146812
0.00146812
0.00146812
0.00146812
0.00146812
0.00146813
0.00146813
0.00146813
0.00146813
0.00146813
0.00146814
0.00146814
0.00146814
0.00146814
0.00146814
0.00146814
0.00146814
0.00146814
0.00146814
0.00146815
0.00146815
0.00146815
0.00146815
0.00146815
0.00146815
0.00146815
0.00146815
0.00146815
0.00146815
0.00146815
0.00146814
0.00146814
0.00146813
0.00146812
0.00146811
0.00146811
0.0014681
0.0014681
0.00146809
0.00146809
0.0014681
0.0014681
0.00146811
0.00146812
0.00146813
0.00146815
0.00146817
0.0014682
0.00146823
0.00146826
0.0014683
0.00146834
0.00146839
0.00146843
0.00146849
0.00146854
0.00143879
0.0013575
0.00128641
0.00122456
0.00117175
0.00114323
0.00126241
0.00136808
3.265e-05
1.04403e-05
1.95388e-05
2.47398e-05
5.36076e-05
6.15066e-05
0.000112212
0.000105548
0.000264157
0.000288066
0.00106499
2.12729e-05
0.000195943
0.000630897
0.00108387
0.00133751
0.00143287
0.00146018
0.00146656
0.00146783
0.00146805
0.00146808
0.00146809
0.00146809
0.00146809
0.00146809
0.00146809
0.00146809
0.00146809
0.00146809
0.00146809
0.0014681
0.0014681
0.0014681
0.0014681
0.0014681
0.0014681
0.0014681
0.00146811
0.00146811
0.00146811
0.00146811
0.00146811
0.00146812
0.00146812
0.00146812
0.00146812
0.00146812
0.00146813
0.00146813
0.00146813
0.00146813
0.00146814
0.00146814
0.00146814
0.00146814
0.00146815
0.00146815
0.00146815
0.00146815
0.00146815
0.00146815
0.00146815
0.00146816
0.00146816
0.00146816
0.00146816
0.00146816
0.00146816
0.00146816
0.00146816
0.00146816
0.00146816
0.00146816
0.00146816
0.00146815
0.00146815
0.00146814
0.00146813
0.00146812
0.00146811
0.00146811
0.0014681
0.0014681
0.0014681
0.0014681
0.0014681
0.00146811
0.00146812
0.00146813
0.00146814
0.00146817
0.00146819
0.00146822
0.00146826
0.0014683
0.00146834
0.00146839
0.00146845
0.00146851
0.00146857
0.00140012
0.00131381
0.00123928
0.0011754
0.0011206
0.00107433
0.00104992
0.001164
0.0013028
4.4367e-05
3.31634e-05
2.19642e-05
0.000152293
5.13783e-05
0.00012552
0.000140436
0.000184284
0.000455459
0.000426619
0.00146864
2.12729e-05
0.000195946
0.000630902
0.00108388
0.00133751
0.00143287
0.00146018
0.00146656
0.00146783
0.00146805
0.00146808
0.00146809
0.00146809
0.00146809
0.00146809
0.00146809
0.00146809
0.00146809
0.00146809
0.00146809
0.0014681
0.0014681
0.0014681
0.0014681
0.0014681
0.0014681
0.00146811
0.00146811
0.00146811
0.00146811
0.00146811
0.00146812
0.00146812
0.00146812
0.00146812
0.00146812
0.00146813
0.00146813
0.00146813
0.00146813
0.00146814
0.00146814
0.00146814
0.00146814
0.00146815
0.00146815
0.00146815
0.00146815
0.00146816
0.00146816
0.00146816
0.00146816
0.00146816
0.00146816
0.00146816
0.00146816
0.00146816
0.00146816
0.00146816
0.00146816
0.00146816
0.00146817
0.00146817
0.00146816
0.00146816
0.00146815
0.00146814
0.00146813
0.00146812
0.00146812
0.00146811
0.00146811
0.0014681
0.0014681
0.0014681
0.00146811
0.00146811
0.00146812
0.00146814
0.00146816
0.00146818
0.00146821
0.00146824
0.00146828
0.00146832
0.00146837
0.00146843
0.00146849
0.00146855
0.00143965
0.00134596
0.00126481
0.00119546
0.00113607
0.00108514
0.00104146
0.0010198
0.00112285
0.00129464
6.49354e-05
5.22136e-05
5.85113e-05
0.000166935
7.59141e-05
0.000174089
0.000145852
0.000205196
0.000312317
0.000430093
0.000694252
2.12729e-05
0.00019595
0.000630912
0.00108389
0.00133751
0.00143288
0.00146018
0.00146656
0.00146783
0.00146805
0.00146808
0.00146809
0.00146809
0.00146809
0.00146809
0.00146809
0.00146809
0.00146809
0.00146809
0.0014681
0.0014681
0.0014681
0.0014681
0.0014681
0.0014681
0.0014681
0.00146811
0.00146811
0.00146811
0.00146811
0.00146811
0.00146812
0.00146812
0.00146812
0.00146812
0.00146813
0.00146813
0.00146813
0.00146813
0.00146814
0.00146814
0.00146814
0.00146814
0.00146815
0.00146815
0.00146815
0.00146815
0.00146816
0.00146816
0.00146816
0.00146816
0.00146816
0.00146816
0.00146816
0.00146816
0.00146817
0.00146817
0.00146817
0.00146817
0.00146817
0.00146817
0.00146817
0.00146817
0.00146816
0.00146816
0.00146815
0.00146814
0.00146813
0.00146813
0.00146812
0.00146812
0.00146811
0.00146811
0.00146811
0.00146811
0.00146812
0.00146812
0.00146814
0.00146815
0.00146817
0.00146819
0.00146822
0.00146826
0.0014683
0.00146835
0.0014684
0.00146845
0.00146852
0.00146858
0.00139741
0.00130886
0.00123267
0.00116718
0.00111084
0.00106229
0.00102
0.00100082
0.00109445
0.00129338
8.23029e-05
9.39288e-05
9.64845e-05
0.000171853
9.85903e-05
0.000253905
0.000175258
0.000301998
0.000359713
0.000505745
0.000586033
2.12728e-05
0.000195953
0.000630922
0.0010839
0.00133752
0.00143288
0.00146018
0.00146656
0.00146783
0.00146805
0.00146808
0.00146809
0.00146809
0.00146809
0.00146809
0.00146809
0.00146809
0.00146809
0.00146809
0.0014681
0.0014681
0.0014681
0.0014681
0.0014681
0.0014681
0.0014681
0.00146811
0.00146811
0.00146811
0.00146811
0.00146811
0.00146812
0.00146812
0.00146812
0.00146812
0.00146813
0.00146813
0.00146813
0.00146813
0.00146814
0.00146814
0.00146814
0.00146814
0.00146815
0.00146815
0.00146815
0.00146815
0.00146816
0.00146816
0.00146816
0.00146816
0.00146816
0.00146817
0.00146817
0.00146817
0.00146817
0.00146817
0.00146817
0.00146817
0.00146817
0.00146817
0.00146817
0.00146817
0.00146817
0.00146816
0.00146815
0.00146815
0.00146814
0.00146813
0.00146813
0.00146812
0.00146812
0.00146812
0.00146812
0.00146812
0.00146813
0.00146814
0.00146815
0.00146817
0.00146819
0.00146821
0.00146824
0.00146828
0.00146832
0.00146837
0.00146842
0.00146848
0.00146855
0.00144993
0.00135443
0.00127134
0.00119948
0.00113727
0.00108356
0.0010371
0.000996073
0.000978618
0.00106056
0.0012693
9.95723e-05
0.000133579
0.0001415
0.000224881
0.000134483
0.000322676
0.000201556
0.000322089
0.000324563
0.000432903
0.000432595
2.12728e-05
0.000195956
0.000630932
0.00108391
0.00133753
0.00143288
0.00146019
0.00146656
0.00146783
0.00146805
0.00146808
0.00146809
0.00146809
0.00146809
0.00146809
0.00146809
0.00146809
0.00146809
0.00146809
0.0014681
0.0014681
0.0014681
0.0014681
0.0014681
0.0014681
0.0014681
0.00146811
0.00146811
0.00146811
0.00146811
0.00146811
0.00146812
0.00146812
0.00146812
0.00146812
0.00146813
0.00146813
0.00146813
0.00146813
0.00146814
0.00146814
0.00146814
0.00146815
0.00146815
0.00146815
0.00146815
0.00146816
0.00146816
0.00146816
0.00146816
0.00146816
0.00146817
0.00146817
0.00146817
0.00146817
0.00146817
0.00146817
0.00146817
0.00146817
0.00146818
0.00146818
0.00146818
0.00146818
0.00146817
0.00146816
0.00146816
0.00146815
0.00146815
0.00146814
0.00146814
0.00146813
0.00146813
0.00146813
0.00146813
0.00146814
0.00146814
0.00146815
0.00146817
0.00146819
0.00146821
0.00146824
0.00146827
0.00146831
0.00146835
0.0014684
0.00146846
0.00146852
0.00146859
0.0013964
0.00130729
0.00122967
0.00116204
0.00110318
0.00105215
0.00100785
0.00096817
0.000952208
0.00102132
0.00123197
0.000115294
0.000181302
0.000172044
0.000256359
0.00016926
0.000387832
0.000227883
0.000364809
0.000326262
0.000429014
0.000390172
2.12727e-05
0.00019596
0.000630942
0.00108392
0.00133753
0.00143288
0.00146019
0.00146656
0.00146783
0.00146805
0.00146808
0.00146809
0.00146809
0.00146809
0.00146809
0.00146809
0.00146809
0.00146809
0.0014681
0.0014681
0.0014681
0.0014681
0.0014681
0.0014681
0.0014681
0.00146811
0.00146811
0.00146811
0.00146811
0.00146811
0.00146812
0.00146812
0.00146812
0.00146812
0.00146812
0.00146813
0.00146813
0.00146813
0.00146814
0.00146814
0.00146814
0.00146814
0.00146815
0.00146815
0.00146815
0.00146816
0.00146816
0.00146816
0.00146816
0.00146816
0.00146817
0.00146817
0.00146817
0.00146817
0.00146817
0.00146818
0.00146818
0.00146818
0.00146818
0.00146818
0.00146818
0.00146818
0.00146818
0.00146818
0.00146817
0.00146816
0.00146816
0.00146815
0.00146815
0.00146815
0.00146815
0.00146814
0.00146815
0.00146815
0.00146815
0.00146816
0.00146817
0.00146819
0.00146821
0.00146823
0.00146826
0.0014683
0.00146834
0.00146839
0.00146844
0.0014685
0.00146856
0.00143202
0.00133845
0.00125603
0.00118389
0.00112055
0.00106516
0.00101695
0.000974932
0.000936686
0.000922181
0.000978171
0.00118836
0.000129682
0.000218631
0.000199531
0.000257815
0.000217121
0.000422341
0.000256113
0.000392692
0.000327768
0.000423812
0.000523266
2.12726e-05
0.000195963
0.000630952
0.00108393
0.00133754
0.00143289
0.00146019
0.00146656
0.00146783
0.00146805
0.00146808
0.00146809
0.00146809
0.00146809
0.00146809
0.00146809
0.00146809
0.00146809
0.0014681
0.0014681
0.0014681
0.0014681
0.0014681
0.0014681
0.0014681
0.00146811
0.00146811
0.00146811
0.00146811
0.00146811
0.00146812
0.00146812
0.00146812
0.00146812
0.00146813
0.00146813
0.00146813
0.00146813
0.00146814
0.00146814
0.00146814
0.00146815
0.00146815
0.00146815
0.00146815
0.00146816
0.00146816
0.00146816
0.00146816
0.00146817
0.00146817
0.00146817
0.00146817
0.00146818
0.00146818
0.00146818
0.00146818
0.00146818
0.00146819
0.00146819
0.00146819
0.00146819
0.00146819
0.00146818
0.00146818
0.00146817
0.00146817
0.00146817
0.00146816
0.00146816
0.00146816
0.00146816
0.00146816
0.00146817
0.00146817
0.00146818
0.0014682
0.00146822
0.00146824
0.00146826
0.0014683
0.00146833
0.00146838
0.00146843
0.00146849
0.00146855
0.0014592
0.0013633
0.00127732
0.00120162
0.00113474
0.00107572
0.00102389
0.000978583
0.000938943
0.000902202
0.000889187
0.000932287
0.00113972
0.000142243
0.000240369
0.000211829
0.000266464
0.000271734
0.000417681
0.000290215
0.000400502
0.000340729
0.000415229
0.000533823
2.12725e-05
0.000195967
0.000630962
0.00108394
0.00133754
0.00143289
0.00146019
0.00146656
0.00146783
0.00146805
0.00146808
0.00146809
0.00146809
0.00146809
0.00146809
0.00146809
0.00146809
0.00146809
0.0014681
0.0014681
0.0014681
0.0014681
0.0014681
0.0014681
0.0014681
0.00146811
0.00146811
0.00146811
0.00146811
0.00146811
0.00146812
0.00146812
0.00146812
0.00146812
0.00146813
0.00146813
0.00146813
0.00146813
0.00146814
0.00146814
0.00146814
0.00146815
0.00146815
0.00146815
0.00146816
0.00146816
0.00146816
0.00146816
0.00146817
0.00146817
0.00146817
0.00146818
0.00146818
0.00146818
0.00146818
0.00146818
0.00146819
0.00146819
0.00146819
0.00146819
0.0014682
0.0014682
0.00146819
0.00146819
0.00146819
0.00146818
0.00146818
0.00146818
0.00146818
0.00146818
0.00146818
0.00146818
0.00146818
0.00146819
0.0014682
0.00146821
0.00146823
0.00146825
0.00146827
0.0014683
0.00146834
0.00146838
0.00146842
0.00146848
0.00146854
0.00146861
0.00138032
0.00129245
0.00121425
0.00114484
0.00108311
0.00102839
0.000980107
0.000937731
0.000900501
0.0008653
0.00085381
0.000884577
0.00108744
0.000152774
0.000249483
0.000213826
0.000280618
0.000326319
0.000421257
0.000329791
0.000394836
0.000362692
0.000408458
0.000548842
2.12724e-05
0.00019597
0.000630973
0.00108395
0.00133755
0.00143289
0.00146019
0.00146657
0.00146783
0.00146805
0.00146808
0.00146809
0.00146809
0.00146809
0.00146809
0.00146809
0.00146809
0.0014681
0.0014681
0.0014681
0.0014681
0.0014681
0.0014681
0.0014681
0.00146811
0.00146811
0.00146811
0.00146811
0.00146811
0.00146812
0.00146812
0.00146812
0.00146812
0.00146812
0.00146813
0.00146813
0.00146813
0.00146814
0.00146814
0.00146814
0.00146815
0.00146815
0.00146815
0.00146815
0.00146816
0.00146816
0.00146816
0.00146817
0.00146817
0.00146817
0.00146818
0.00146818
0.00146818
0.00146818
0.00146819
0.00146819
0.00146819
0.0014682
0.0014682
0.0014682
0.0014682
0.0014682
0.0014682
0.0014682
0.0014682
0.0014682
0.00146819
0.00146819
0.00146819
0.0014682
0.0014682
0.0014682
0.00146821
0.00146822
0.00146823
0.00146824
0.00146826
0.00146828
0.00146831
0.00146834
0.00146838
0.00146843
0.00146848
0.00146854
0.0014686
0.00138833
0.00130044
0.00122103
0.00115013
0.00108662
0.00102987
0.000979337
0.000934538
0.000895039
0.0008602
0.000826535
0.000816601
0.000835776
0.00103265
0.000161223
0.000252351
0.000211265
0.000289842
0.00037908
0.000425374
0.000368911
0.000391449
0.000380644
0.000409448
0.000556704
2.12723e-05
0.000195974
0.000630982
0.00108396
0.00133755
0.00143289
0.00146019
0.00146657
0.00146783
0.00146805
0.00146808
0.00146809
0.00146809
0.00146809
0.00146809
0.00146809
0.00146809
0.0014681
0.0014681
0.0014681
0.0014681
0.0014681
0.0014681
0.0014681
0.00146811
0.00146811
0.00146811
0.00146811
0.00146811
0.00146812
0.00146812
0.00146812
0.00146812
0.00146813
0.00146813
0.00146813
0.00146813
0.00146814
0.00146814
0.00146814
0.00146815
0.00146815
0.00146815
0.00146816
0.00146816
0.00146816
0.00146817
0.00146817
0.00146817
0.00146818
0.00146818
0.00146818
0.00146819
0.00146819
0.00146819
0.0014682
0.0014682
0.0014682
0.00146821
0.00146821
0.00146821
0.00146821
0.00146821
0.00146821
0.00146821
0.00146821
0.00146821
0.00146821
0.00146821
0.00146822
0.00146822
0.00146823
0.00146824
0.00146825
0.00146826
0.00146828
0.0014683
0.00146833
0.00146836
0.00146839
0.00146844
0.00146849
0.00146854
0.00146861
0.00138673
0.00130053
0.00122138
0.0011501
0.0010858
0.00102787
0.000975859
0.000929313
0.000887838
0.00085111
0.000818604
0.000786438
0.000778084
0.000786533
0.000976356
0.000167677
0.000252766
0.0002078
0.00028689
0.000424133
0.000427804
0.000395583
0.000394793
0.000390193
0.000413765
0.000561863
2.12721e-05
0.000195977
0.000630992
0.00108397
0.00133756
0.0014329
0.00146019
0.00146657
0.00146783
0.00146805
0.00146809
0.00146809
0.00146809
0.00146809
0.00146809
0.00146809
0.0014681
0.0014681
0.0014681
0.0014681
0.0014681
0.0014681
0.0014681
0.00146811
0.00146811
0.00146811
0.00146811
0.00146811
0.00146811
0.00146812
0.00146812
0.00146812
0.00146812
0.00146813
0.00146813
0.00146813
0.00146814
0.00146814
0.00146814
0.00146814
0.00146815
0.00146815
0.00146816
0.00146816
0.00146816
0.00146817
0.00146817
0.00146817
0.00146818
0.00146818
0.00146818
0.00146819
0.00146819
0.0014682
0.0014682
0.0014682
0.00146821
0.00146821
0.00146822
0.00146822
0.00146822
0.00146822
0.00146822
0.00146822
0.00146823
0.00146823
0.00146823
0.00146823
0.00146824
0.00146824
0.00146825
0.00146826
0.00146827
0.00146828
0.0014683
0.00146832
0.00146834
0.00146837
0.00146841
0.00146845
0.0014685
0.00146856
0.00146185
0.00137559
0.00129246
0.00121505
0.00114452
0.00108038
0.00102214
0.000969396
0.000921779
0.000878946
0.000840595
0.0008065
0.000776241
0.000745509
0.000738747
0.000737436
0.000919421
0.00017231
0.000251556
0.000204456
0.000275226
0.000451666
0.000432402
0.000408151
0.000399699
0.00039516
0.000417527
0.000565767
2.1272e-05
0.000195981
0.000631002
0.00108398
0.00133757
0.0014329
0.00146019
0.00146657
0.00146783
0.00146805
0.00146809
0.00146809
0.00146809
0.00146809
0.00146809
0.0014681
0.0014681
0.0014681
0.0014681
0.0014681
0.0014681
0.0014681
0.0014681
0.00146811
0.00146811
0.00146811
0.00146811
0.00146811
0.00146812
0.00146812
0.00146812
0.00146812
0.00146813
0.00146813
0.00146813
0.00146813
0.00146814
0.00146814
0.00146814
0.00146815
0.00146815
0.00146815
0.00146816
0.00146816
0.00146817
0.00146817
0.00146817
0.00146818
0.00146818
0.00146819
0.00146819
0.00146819
0.0014682
0.0014682
0.00146821
0.00146821
0.00146822
0.00146822
0.00146823
0.00146823
0.00146823
0.00146824
0.00146824
0.00146824
0.00146824
0.00146825
0.00146825
0.00146826
0.00146826
0.00146827
0.00146828
0.00146829
0.0014683
0.00146832
0.00146834
0.00146837
0.0014684
0.00146843
0.00146847
0.00146852
0.00146857
0.00143682
0.00135568
0.00127665
0.00120221
0.00113351
0.00107042
0.00101264
0.000959867
0.000911807
0.000868193
0.00082878
0.000793341
0.000761723
0.000733605
0.000704215
0.000699037
0.000688991
0.000862548
0.000175325
0.000248525
0.000200647
0.00026166
0.000460401
0.000435188
0.000412643
0.000402241
0.000397188
0.000419532
0.000567868
2.12718e-05
0.000195984
0.000631012
0.00108399
0.00133757
0.0014329
0.00146019
0.00146657
0.00146783
0.00146805
0.00146809
0.00146809
0.00146809
0.00146809
0.0014681
0.0014681
0.0014681
0.0014681
0.0014681
0.0014681
0.0014681
0.0014681
0.0014681
0.00146811
0.00146811
0.00146811
0.00146811
0.00146811
0.00146812
0.00146812
0.00146812
0.00146812
0.00146813
0.00146813
0.00146813
0.00146814
0.00146814
0.00146814
0.00146815
0.00146815
0.00146815
0.00146816
0.00146816
0.00146816
0.00146817
0.00146817
0.00146818
0.00146818
0.00146819
0.00146819
0.00146819
0.0014682
0.0014682
0.00146821
0.00146821
0.00146822
0.00146823
0.00146823
0.00146824
0.00146824
0.00146825
0.00146825
0.00146825
0.00146826
0.00146826
0.00146827
0.00146827
0.00146828
0.00146829
0.0014683
0.00146831
0.00146833
0.00146835
0.00146837
0.00146839
0.00146842
0.00146846
0.0014685
0.00146854
0.0014686
0.00140419
0.00132842
0.00125417
0.00118357
0.00111754
0.00105624
0.000999579
0.000947375
0.00089943
0.000855551
0.000815566
0.000779296
0.000746556
0.000717246
0.000691142
0.00066297
0.000659361
0.000641609
0.000806367
0.000176926
0.000243499
0.000195762
0.000248503
0.000457397
0.000433348
0.000412028
0.000401652
0.000396625
0.000419456
0.000567693
2.12716e-05
0.000195987
0.000631022
0.001084
0.00133758
0.0014329
0.0014602
0.00146657
0.00146783
0.00146805
0.00146809
0.00146809
0.00146809
0.00146809
0.0014681
0.0014681
0.0014681
0.0014681
0.0014681
0.0014681
0.0014681
0.0014681
0.00146811
0.00146811
0.00146811
0.00146811
0.00146811
0.00146812
0.00146812
0.00146812
0.00146812
0.00146812
0.00146813
0.00146813
0.00146813
0.00146814
0.00146814
0.00146814
0.00146815
0.00146815
0.00146815
0.00146816
0.00146816
0.00146817
0.00146817
0.00146818
0.00146818
0.00146819
0.00146819
0.00146819
0.0014682
0.00146821
0.00146821
0.00146822
0.00146822
0.00146823
0.00146824
0.00146824
0.00146825
0.00146826
0.00146826
0.00146827
0.00146827
0.00146828
0.00146828
0.00146829
0.0014683
0.00146831
0.00146832
0.00146834
0.00146835
0.00146837
0.00146839
0.00146842
0.00146845
0.00146848
0.00146853
0.00146857
0.00143639
0.0013662
0.00129574
0.00122658
0.00116023
0.00109741
0.00103841
0.000983361
0.000932199
0.000884823
0.000841125
0.000800994
0.000764311
0.000730918
0.000700656
0.000673466
0.000649232
0.000622132
0.000620061
0.000595632
0.000751426
0.00017732
0.000236654
0.000189867
0.000237563
0.000449621
0.00042756
0.000407601
0.000398126
0.000393706
0.000417314
0.000565121
2.12714e-05
0.000195991
0.000631031
0.00108401
0.00133758
0.00143291
0.0014602
0.00146657
0.00146783
0.00146805
0.00146809
0.00146809
0.00146809
0.0014681
0.0014681
0.0014681
0.0014681
0.0014681
0.0014681
0.0014681
0.0014681
0.00146811
0.00146811
0.00146811
0.00146811
0.00146811
0.00146811
0.00146812
0.00146812
0.00146812
0.00146812
0.00146813
0.00146813
0.00146813
0.00146813
0.00146814
0.00146814
0.00146815
0.00146815
0.00146815
0.00146816
0.00146816
0.00146817
0.00146817
0.00146817
0.00146818
0.00146818
0.00146819
0.00146819
0.0014682
0.00146821
0.00146821
0.00146822
0.00146822
0.00146823
0.00146824
0.00146825
0.00146825
0.00146826
0.00146827
0.00146828
0.00146828
0.00146829
0.0014683
0.00146831
0.00146832
0.00146833
0.00146834
0.00146836
0.00146838
0.0014684
0.00146842
0.00146845
0.00146848
0.00146851
0.00146856
0.00145531
0.00139062
0.00132512
0.00125995
0.0011957
0.00113357
0.0010741
0.00101768
0.000964545
0.00091475
0.000868284
0.00082512
0.000785205
0.000748461
0.000714768
0.000683982
0.000655961
0.000630692
0.000608174
0.000582
0.000581417
0.000551343
0.000698156
0.000176733
0.000229362
0.000183195
0.000224809
0.000434189
0.000416418
0.0003995
0.000391912
0.000388711
0.000413329
0.000560364
2.12712e-05
0.000195994
0.000631041
0.00108402
0.00133759
0.00143291
0.0014602
0.00146657
0.00146784
0.00146805
0.00146809
0.00146809
0.0014681
0.0014681
0.0014681
0.0014681
0.0014681
0.0014681
0.0014681
0.0014681
0.0014681
0.00146811
0.00146811
0.00146811
0.00146811
0.00146811
0.00146812
0.00146812
0.00146812
0.00146812
0.00146812
0.00146813
0.00146813
0.00146813
0.00146814
0.00146814
0.00146814
0.00146815
0.00146815
0.00146815
0.00146816
0.00146816
0.00146817
0.00146817
0.00146818
0.00146818
0.00146819
0.00146819
0.0014682
0.00146821
0.00146821
0.00146822
0.00146823
0.00146823
0.00146824
0.00146825
0.00146826
0.00146827
0.00146828
0.00146828
0.00146829
0.0014683
0.00146831
0.00146832
0.00146834
0.00146835
0.00146836
0.00146838
0.0014684
0.00146842
0.00146845
0.00146848
0.00146851
0.00146855
0.00146531
0.00140575
0.00134515
0.00128384
0.00122284
0.0011632
0.00110496
0.0010487
0.000994884
0.000943786
0.000895538
0.000850205
0.000807827
0.000768407
0.000731892
0.000698184
0.000667158
0.000638696
0.000612682
0.00058914
0.000568201
0.000542827
0.000543661
0.000508966
0.00064684
0.000175342
0.000221642
0.000175554
0.000210814
0.00041491
0.000401685
0.000388822
0.000383766
0.000382204
0.000407986
0.000553993
2.1271e-05
0.000195997
0.00063105
0.00108403
0.0013376
0.00143291
0.0014602
0.00146657
0.00146784
0.00146806
0.00146809
0.0014681
0.0014681
0.0014681
0.0014681
0.0014681
0.0014681
0.0014681
0.0014681
0.0014681
0.00146811
0.00146811
0.00146811
0.00146811
0.00146811
0.00146811
0.00146812
0.00146812
0.00146812
0.00146812
0.00146813
0.00146813
0.00146813
0.00146813
0.00146814
0.00146814
0.00146815
0.00146815
0.00146815
0.00146816
0.00146816
0.00146817
0.00146817
0.00146818
0.00146818
0.00146819
0.00146819
0.0014682
0.00146821
0.00146821
0.00146822
0.00146823
0.00146823
0.00146824
0.00146825
0.00146826
0.00146827
0.00146828
0.00146829
0.0014683
0.00146831
0.00146832
0.00146834
0.00146835
0.00146836
0.00146838
0.0014684
0.00146842
0.00146845
0.00146847
0.0014685
0.00146854
0.00146858
0.00141575
0.00135861
0.00130119
0.00124401
0.00118671
0.00113044
0.00107551
0.00102224
0.000970862
0.00092177
0.00087512
0.000831033
0.000789603
0.000750865
0.000714785
0.000681279
0.000650241
0.000621573
0.000595182
0.000570973
0.000549001
0.000529533
0.000504857
0.000507014
0.000468663
0.000597698
0.000173302
0.000213172
0.000167248
0.000198462
0.000396623
0.000386641
0.000377256
0.000374693
0.000374916
0.00040196
0.000546873
2.12707e-05
0.000196
0.000631059
0.00108404
0.0013376
0.00143291
0.0014602
0.00146657
0.00146784
0.00146806
0.00146809
0.0014681
0.0014681
0.0014681
0.0014681
0.0014681
0.0014681
0.0014681
0.0014681
0.00146811
0.00146811
0.00146811
0.00146811
0.00146811
0.00146811
0.00146812
0.00146812
0.00146812
0.00146812
0.00146812
0.00146813
0.00146813
0.00146813
0.00146814
0.00146814
0.00146814
0.00146815
0.00146815
0.00146816
0.00146816
0.00146816
0.00146817
0.00146817
0.00146818
0.00146819
0.00146819
0.0014682
0.0014682
0.00146821
0.00146822
0.00146823
0.00146823
0.00146824
0.00146825
0.00146826
0.00146827
0.00146828
0.0014683
0.00146831
0.00146832
0.00146833
0.00146835
0.00146836
0.00146838
0.0014684
0.00146842
0.00146844
0.00146847
0.0014685
0.00146853
0.00146857
0.00142569
0.00137082
0.00131573
0.00126074
0.00120612
0.00115232
0.00109896
0.0010465
0.000995467
0.000946425
0.000899187
0.00085407
0.000811243
0.000770824
0.000732865
0.000697347
0.000664194
0.000633318
0.000604635
0.000578075
0.000553564
0.00053101
0.000510479
0.000492386
0.000468315
0.000471677
0.000430554
0.000550924
0.000170753
0.000204353
0.000158478
0.000185939
0.000377913
0.000371362
0.000365329
0.000365323
0.000367485
0.000395961
0.000539996
2.12705e-05
0.000196004
0.000631068
0.00108405
0.00133761
0.00143292
0.0014602
0.00146657
0.00146784
0.00146806
0.00146809
0.0014681
0.0014681
0.0014681
0.0014681
0.0014681
0.0014681
0.0014681
0.0014681
0.00146811
0.00146811
0.00146811
0.00146811
0.00146811
0.00146811
0.00146812
0.00146812
0.00146812
0.00146812
0.00146813
0.00146813
0.00146813
0.00146814
0.00146814
0.00146814
0.00146815
0.00146815
0.00146815
0.00146816
0.00146816
0.00146817
0.00146817
0.00146818
0.00146818
0.00146819
0.0014682
0.0014682
0.00146821
0.00146822
0.00146823
0.00146823
0.00146824
0.00146825
0.00146826
0.00146827
0.00146829
0.0014683
0.00146831
0.00146833
0.00146834
0.00146836
0.00146837
0.00146839
0.00146841
0.00146843
0.00146846
0.00146849
0.00146852
0.00146855
0.00143919
0.00138531
0.00133136
0.00127772
0.00122452
0.00117193
0.00111995
0.00106886
0.00101893
0.00096971
0.000922205
0.000876657
0.000832977
0.00079132
0.000751885
0.000714722
0.000679813
0.000647094
0.000616492
0.000587943
0.000561388
0.000536763
0.000513988
0.000492952
0.000473733
0.000456911
0.000433357
0.000437777
0.000394699
0.000506606
0.0001678
0.000195471
0.000149357
0.000173295
0.000358881
0.000356095
0.000353488
0.000356206
0.000360525
0.000390737
0.000534429
2.12702e-05
0.000196007
0.000631077
0.00108406
0.00133761
0.00143292
0.0014602
0.00146658
0.00146784
0.00146806
0.00146809
0.0014681
0.0014681
0.0014681
0.0014681
0.0014681
0.0014681
0.0014681
0.00146811
0.00146811
0.00146811
0.00146811
0.00146811
0.00146811
0.00146812
0.00146812
0.00146812
0.00146812
0.00146812
0.00146813
0.00146813
0.00146813
0.00146814
0.00146814
0.00146814
0.00146815
0.00146815
0.00146816
0.00146816
0.00146817
0.00146817
0.00146818
0.00146818
0.00146819
0.00146819
0.0014682
0.00146821
0.00146822
0.00146822
0.00146823
0.00146824
0.00146825
0.00146826
0.00146827
0.00146829
0.0014683
0.00146832
0.00146833
0.00146835
0.00146836
0.00146838
0.0014684
0.00146842
0.00146845
0.00146847
0.0014685
0.00146854
0.00145895
0.00140499
0.00135112
0.00129771
0.00124491
0.00119284
0.00114147
0.00109089
0.00104118
0.000992568
0.000945497
0.000899387
0.00085489
0.000812245
0.000771754
0.000733191
0.000696755
0.000662433
0.000630165
0.000599894
0.000571576
0.000545159
0.000520572
0.000497728
0.00047653
0.000456867
0.000438822
0.000423174
0.000400075
0.000405399
0.000361107
0.000464758
0.000164517
0.000186678
0.000139956
0.000160746
0.000339981
0.000341311
0.000342214
0.000347884
0.000354666
0.000387109
0.000531375
2.12699e-05
0.00019601
0.000631086
0.00108407
0.00133762
0.00143292
0.00146021
0.00146658
0.00146784
0.00146806
0.00146809
0.0014681
0.0014681
0.0014681
0.0014681
0.0014681
0.0014681
0.00146811
0.00146811
0.00146811
0.00146811
0.00146811
0.00146811
0.00146812
0.00146812
0.00146812
0.00146812
0.00146812
0.00146813
0.00146813
0.00146813
0.00146814
0.00146814
0.00146814
0.00146815
0.00146815
0.00146815
0.00146816
0.00146816
0.00146817
0.00146817
0.00146818
0.00146819
0.00146819
0.0014682
0.00146821
0.00146821
0.00146822
0.00146823
0.00146824
0.00146825
0.00146826
0.00146827
0.00146829
0.0014683
0.00146832
0.00146833
0.00146835
0.00146837
0.00146838
0.00146841
0.00146843
0.00146845
0.00146848
0.00146851
0.00146855
0.00143194
0.00137727
0.00132314
0.00126981
0.00121738
0.0011658
0.00111508
0.0010653
0.00101655
0.000968959
0.000922651
0.000877893
0.000834734
0.000792775
0.000752833
0.00071509
0.0006793
0.000645469
0.00061361
0.000583674
0.000555627
0.000529421
0.000504974
0.000482183
0.000460946
0.00044117
0.000422749
0.000405765
0.000391222
0.000368546
0.000374631
0.000329772
0.00042541
0.000160964
0.000178068
0.000130337
0.000148375
0.000321293
0.000327323
0.000331873
0.000340852
0.000350573
0.000386048
0.000532404
2.12696e-05
0.000196013
0.000631095
0.00108408
0.00133762
0.00143293
0.00146021
0.00146658
0.00146784
0.00146806
0.00146809
0.0014681
0.0014681
0.0014681
0.0014681
0.0014681
0.00146811
0.00146811
0.00146811
0.00146811
0.00146811
0.00146811
0.00146811
0.00146812
0.00146812
0.00146812
0.00146812
0.00146813
0.00146813
0.00146813
0.00146813
0.00146814
0.00146814
0.00146814
0.00146815
0.00146815
0.00146816
0.00146816
0.00146817
0.00146817
0.00146818
0.00146818
0.00146819
0.0014682
0.0014682
0.00146821
0.00146822
0.00146823
0.00146824
0.00146825
0.00146826
0.00146827
0.00146828
0.0014683
0.00146831
0.00146833
0.00146835
0.00146837
0.00146839
0.00146841
0.00146843
0.00146846
0.00146849
0.00146852
0.00146737
0.00141134
0.00135582
0.00130116
0.00124758
0.00119502
0.00114345
0.00109293
0.00104349
0.000995217
0.000948202
0.000902545
0.000858314
0.00081565
0.000774935
0.000735488
0.000697984
0.000662548
0.000629213
0.000597662
0.000568001
0.000540211
0.000514227
0.000489957
0.000467289
0.000446115
0.000426339
0.000407875
0.00039061
0.000374616
0.000361127
0.00033886
0.000345561
0.000300689