/*--------------------------------*- C++ -*----------------------------------*\
| =========                 |                                                 |
| \\      /  F ield         | OpenFOAM: The Open Source CFD Toolbox           |
|  \\    /   O peration     | Version:  v2106                                 |
|   \\  /    A nd           | Website:  www.openfoam.com                      |
|    \\/     M anipulation  |                                                 |
\*---------------------------------------------------------------------------*/
FoamFile
{
    version     2.0;
    format      ascii;
    arch        "LSB;label=32;scalar=64";
    class       volScalarField;
    location    "0.4";
    object      omega;
}
// * * * * * * * * * * * * * * * * * * * * * * * * * * * * * * * * * * * * * //

dimensions      [0 0 -1 0 0 0 0];

internalField   nonuniform List<scalar> 
29678
(
7.76117
1.05684
0.337405
0.197636
0.160478
0.149902
0.147133
0.146503
0.14638
0.146359
0.146356
0.146355
0.146355
0.146355
0.146355
0.146355
0.146355
0.146356
0.146356
0.146356
0.146356
0.146356
0.146356
0.146356
0.146356
0.146356
0.146356
0.146357
0.146357
0.146357
0.146357
0.146357
0.146357
0.146357
0.146357
0.146358
0.146358
0.146358
0.146358
0.146358
0.146358
0.146359
0.146359
0.146359
0.146359
0.146359
0.146359
0.14636
0.14636
0.14636
0.14636
0.14636
0.14636
0.14636
0.14636
0.146359
0.146359
0.146359
0.146358
0.146358
0.146357
0.146357
0.146356
0.146355
0.146354
0.146354
0.146354
0.146354
0.146354
0.146354
0.146354
0.146354
0.146354
0.146354
0.146354
0.146355
0.146355
0.146356
0.146357
0.146358
0.14636
0.146361
0.146364
0.146366
0.146369
0.146372
0.146375
0.146379
0.146383
0.146387
0.146392
0.146396
0.1464
0.146405
0.146409
0.146413
0.14642
0.146526
0.148427
0.197836
0.206899
0.155859
0.1784
0.168671
0.158879
0.154517
0.150896
0.148973
0.147507
0.146948
7.76092
1.05695
0.337429
0.197641
0.160479
0.149902
0.147133
0.146503
0.14638
0.146359
0.146356
0.146355
0.146355
0.146355
0.146356
0.146356
0.146356
0.146356
0.146356
0.146356
0.146356
0.146356
0.146357
0.146357
0.146357
0.146357
0.146357
0.146357
0.146358
0.146358
0.146358
0.146358
0.146358
0.146359
0.146359
0.146359
0.146359
0.14636
0.14636
0.14636
0.14636
0.146361
0.146361
0.146361
0.146361
0.146362
0.146362
0.146362
0.146362
0.146362
0.146362
0.146363
0.146363
0.146363
0.146362
0.146362
0.146362
0.146362
0.146361
0.146361
0.14636
0.146359
0.146358
0.146357
0.146356
0.146356
0.146356
0.146356
0.146355
0.146355
0.146355
0.146355
0.146355
0.146355
0.146355
0.146355
0.146356
0.146357
0.146359
0.14636
0.146363
0.146366
0.146369
0.146373
0.146377
0.146382
0.146387
0.146393
0.1464
0.146406
0.146413
0.146421
0.146428
0.146435
0.146442
0.146449
0.146453
0.146474
0.147035
0.162135
0.191377
0.183094
0.176425
0.15877
0.157118
0.149472
0.149626
0.146849
0.14672
0.146424
7.76091
1.05696
0.337434
0.197643
0.16048
0.149903
0.147133
0.146503
0.14638
0.146359
0.146356
0.146355
0.146355
0.146356
0.146356
0.146356
0.146356
0.146356
0.146356
0.146356
0.146356
0.146357
0.146357
0.146357
0.146357
0.146357
0.146358
0.146358
0.146358
0.146358
0.146358
0.146359
0.146359
0.146359
0.14636
0.14636
0.14636
0.14636
0.146361
0.146361
0.146361
0.146362
0.146362
0.146362
0.146362
0.146363
0.146363
0.146363
0.146363
0.146364
0.146364
0.146364
0.146364
0.146364
0.146364
0.146364
0.146363
0.146363
0.146362
0.146362
0.146361
0.14636
0.146359
0.146358
0.146358
0.146357
0.146357
0.146357
0.146356
0.146356
0.146356
0.146355
0.146355
0.146355
0.146356
0.146356
0.146357
0.146358
0.14636
0.146362
0.146365
0.146368
0.146372
0.146377
0.146382
0.146388
0.146394
0.146401
0.146409
0.146417
0.146425
0.146433
0.146442
0.146451
0.146459
0.146466
0.146471
0.146473
0.146814
0.157836
0.16062
0.176424
0.149129
0.156992
0.150222
0.148267
0.147765
0.146635
0.1466
0.146424
7.76091
1.05694
0.337431
0.197643
0.16048
0.149903
0.147133
0.146503
0.14638
0.146359
0.146356
0.146355
0.146355
0.146356
0.146356
0.146356
0.146356
0.146356
0.146356
0.146356
0.146356
0.146357
0.146357
0.146357
0.146357
0.146357
0.146358
0.146358
0.146358
0.146358
0.146359
0.146359
0.146359
0.146359
0.14636
0.14636
0.14636
0.146361
0.146361
0.146361
0.146362
0.146362
0.146362
0.146363
0.146363
0.146363
0.146363
0.146364
0.146364
0.146364
0.146364
0.146364
0.146364
0.146364
0.146364
0.146364
0.146364
0.146364
0.146363
0.146362
0.146362
0.146361
0.14636
0.146359
0.146359
0.146358
0.146358
0.146358
0.146357
0.146357
0.146356
0.146356
0.146356
0.146356
0.146356
0.146357
0.146358
0.146359
0.146361
0.146364
0.146367
0.14637
0.146374
0.146379
0.146385
0.146391
0.146398
0.146405
0.146413
0.146422
0.14643
0.146439
0.146449
0.146458
0.146466
0.146474
0.146478
0.146472
0.146662
0.153553
0.155115
0.154962
0.148038
0.153047
0.148746
0.148593
0.147636
0.146886
0.14667
0.146518
7.7609
1.05692
0.337426
0.197641
0.160479
0.149902
0.147133
0.146504
0.14638
0.146359
0.146356
0.146355
0.146355
0.146356
0.146356
0.146356
0.146356
0.146356
0.146356
0.146356
0.146356
0.146357
0.146357
0.146357
0.146357
0.146357
0.146358
0.146358
0.146358
0.146358
0.146359
0.146359
0.146359
0.14636
0.14636
0.14636
0.14636
0.146361
0.146361
0.146361
0.146362
0.146362
0.146362
0.146363
0.146363
0.146363
0.146364
0.146364
0.146364
0.146364
0.146364
0.146365
0.146365
0.146365
0.146365
0.146364
0.146364
0.146364
0.146363
0.146363
0.146362
0.146361
0.14636
0.14636
0.14636
0.146359
0.146359
0.146359
0.146358
0.146358
0.146357
0.146357
0.146357
0.146357
0.146358
0.146358
0.146359
0.146361
0.146363
0.146365
0.146368
0.146372
0.146377
0.146382
0.146387
0.146394
0.146401
0.146409
0.146417
0.146426
0.146435
0.146444
0.146454
0.146463
0.146472
0.14648
0.146483
0.146475
0.146602
0.151803
0.151265
0.151329
0.147923
0.151127
0.147392
0.148003
0.147057
0.146851
0.146655
0.14657
7.76089
1.05691
0.337421
0.197639
0.160479
0.149902
0.147133
0.146504
0.14638
0.146359
0.146356
0.146355
0.146356
0.146356
0.146356
0.146356
0.146356
0.146356
0.146356
0.146356
0.146357
0.146357
0.146357
0.146357
0.146357
0.146357
0.146358
0.146358
0.146358
0.146358
0.146359
0.146359
0.146359
0.14636
0.14636
0.14636
0.146361
0.146361
0.146361
0.146362
0.146362
0.146362
0.146363
0.146363
0.146363
0.146363
0.146364
0.146364
0.146364
0.146365
0.146365
0.146365
0.146365
0.146365
0.146365
0.146365
0.146365
0.146364
0.146364
0.146363
0.146363
0.146362
0.146361
0.146361
0.146361
0.14636
0.14636
0.14636
0.146359
0.146359
0.146359
0.146359
0.146359
0.146359
0.146359
0.14636
0.146361
0.146363
0.146365
0.146368
0.146371
0.146375
0.146379
0.146384
0.14639
0.146397
0.146405
0.146413
0.146421
0.14643
0.14644
0.146449
0.146459
0.146469
0.146478
0.146486
0.14649
0.146479
0.146564
0.150625
0.14955
0.149154
0.14735
0.149404
0.147086
0.147733
0.147015
0.146967
0.146738
0.146648
7.76087
1.05689
0.337416
0.197637
0.160478
0.149902
0.147133
0.146504
0.14638
0.146359
0.146356
0.146356
0.146356
0.146356
0.146356
0.146356
0.146356
0.146356
0.146356
0.146356
0.146357
0.146357
0.146357
0.146357
0.146357
0.146358
0.146358
0.146358
0.146358
0.146359
0.146359
0.146359
0.146359
0.14636
0.14636
0.14636
0.146361
0.146361
0.146361
0.146362
0.146362
0.146362
0.146363
0.146363
0.146363
0.146364
0.146364
0.146364
0.146365
0.146365
0.146365
0.146365
0.146365
0.146365
0.146365
0.146365
0.146365
0.146365
0.146364
0.146364
0.146363
0.146363
0.146362
0.146362
0.146362
0.146362
0.146361
0.146361
0.146361
0.14636
0.14636
0.14636
0.14636
0.146361
0.146361
0.146362
0.146363
0.146365
0.146367
0.14637
0.146374
0.146378
0.146383
0.146388
0.146394
0.146401
0.146409
0.146417
0.146426
0.146436
0.146446
0.146456
0.146466
0.146476
0.146485
0.146494
0.146498
0.146487
0.146543
0.149875
0.148437
0.148256
0.147212
0.148303
0.146923
0.14751
0.146931
0.147006
0.146775
0.146644
7.76084
1.05687
0.337411
0.197636
0.160478
0.149902
0.147133
0.146504
0.14638
0.146359
0.146356
0.146356
0.146356
0.146356
0.146356
0.146356
0.146356
0.146356
0.146356
0.146356
0.146357
0.146357
0.146357
0.146357
0.146357
0.146358
0.146358
0.146358
0.146358
0.146359
0.146359
0.146359
0.146359
0.14636
0.14636
0.14636
0.146361
0.146361
0.146361
0.146362
0.146362
0.146362
0.146363
0.146363
0.146363
0.146364
0.146364
0.146364
0.146365
0.146365
0.146365
0.146365
0.146366
0.146366
0.146366
0.146366
0.146366
0.146365
0.146365
0.146365
0.146364
0.146364
0.146363
0.146363
0.146363
0.146363
0.146363
0.146362
0.146362
0.146362
0.146362
0.146362
0.146362
0.146363
0.146363
0.146364
0.146366
0.146368
0.14637
0.146373
0.146377
0.146381
0.146387
0.146392
0.146399
0.146406
0.146415
0.146423
0.146433
0.146443
0.146453
0.146463
0.146474
0.146484
0.146494
0.146504
0.146508
0.146497
0.146533
0.14935
0.14797
0.147815
0.147175
0.147566
0.146885
0.147312
0.146917
0.147014
0.146815
0.146637
7.76082
1.05685
0.337405
0.197634
0.160477
0.149902
0.147133
0.146504
0.14638
0.146359
0.146356
0.146356
0.146356
0.146356
0.146356
0.146356
0.146356
0.146356
0.146356
0.146357
0.146357
0.146357
0.146357
0.146357
0.146357
0.146358
0.146358
0.146358
0.146358
0.146359
0.146359
0.146359
0.14636
0.14636
0.14636
0.14636
0.146361
0.146361
0.146361
0.146362
0.146362
0.146363
0.146363
0.146363
0.146364
0.146364
0.146364
0.146365
0.146365
0.146365
0.146366
0.146366
0.146366
0.146366
0.146366
0.146366
0.146366
0.146366
0.146366
0.146365
0.146365
0.146365
0.146365
0.146365
0.146364
0.146364
0.146364
0.146364
0.146364
0.146364
0.146364
0.146364
0.146365
0.146365
0.146366
0.146367
0.146369
0.146371
0.146374
0.146377
0.146381
0.146386
0.146391
0.146398
0.146405
0.146412
0.146421
0.14643
0.14644
0.146451
0.146462
0.146473
0.146484
0.146495
0.146506
0.146516
0.14652
0.146509
0.14653
0.148987
0.147771
0.147693
0.147095
0.147185
0.146893
0.147146
0.14694
0.146994
0.146854
0.146649
7.76078
1.05683
0.3374
0.197632
0.160476
0.149902
0.147133
0.146504
0.14638
0.146359
0.146356
0.146356
0.146356
0.146356
0.146356
0.146356
0.146356
0.146356
0.146356
0.146357
0.146357
0.146357
0.146357
0.146357
0.146358
0.146358
0.146358
0.146358
0.146358
0.146359
0.146359
0.146359
0.14636
0.14636
0.14636
0.146361
0.146361
0.146361
0.146362
0.146362
0.146362
0.146363
0.146363
0.146364
0.146364
0.146364
0.146365
0.146365
0.146365
0.146366
0.146366
0.146366
0.146367
0.146367
0.146367
0.146367
0.146367
0.146367
0.146367
0.146366
0.146366
0.146366
0.146366
0.146366
0.146366
0.146366
0.146366
0.146366
0.146366
0.146366
0.146366
0.146367
0.146367
0.146368
0.146369
0.146371
0.146373
0.146375
0.146378
0.146382
0.146386
0.146391
0.146397
0.146404
0.146411
0.14642
0.146429
0.146439
0.146449
0.14646
0.146472
0.146484
0.146496
0.146508
0.146519
0.14653
0.146534
0.146524
0.146532
0.148737
0.14769
0.147685
0.147046
0.146989
0.146901
0.14704
0.146967
0.146982
0.146882
0.146661
7.76074
1.05682
0.337395
0.19763
0.160476
0.149901
0.147133
0.146504
0.14638
0.146359
0.146356
0.146356
0.146356
0.146356
0.146356
0.146356
0.146356
0.146356
0.146357
0.146357
0.146357
0.146357
0.146357
0.146357
0.146358
0.146358
0.146358
0.146358
0.146359
0.146359
0.146359
0.146359
0.14636
0.14636
0.14636
0.146361
0.146361
0.146361
0.146362
0.146362
0.146363
0.146363
0.146363
0.146364
0.146364
0.146365
0.146365
0.146365
0.146366
0.146366
0.146366
0.146367
0.146367
0.146367
0.146367
0.146368
0.146368
0.146368
0.146368
0.146367
0.146367
0.146367
0.146368
0.146368
0.146368
0.146368
0.146368
0.146368
0.146368
0.146369
0.146369
0.146369
0.14637
0.146371
0.146373
0.146374
0.146377
0.146379
0.146383
0.146387
0.146392
0.146397
0.146404
0.146411
0.146419
0.146428
0.146438
0.146449
0.14646
0.146472
0.146485
0.146497
0.14651
0.146523
0.146535
0.146547
0.146551
0.146543
0.146539
0.148574
0.147664
0.147718
0.14705
0.146897
0.146912
0.146993
0.146987
0.146989
0.146904
0.146676
7.7607
1.0568
0.33739
0.197629
0.160475
0.149901
0.147133
0.146504
0.14638
0.146359
0.146356
0.146356
0.146356
0.146356
0.146356
0.146356
0.146356
0.146356
0.146357
0.146357
0.146357
0.146357
0.146357
0.146357
0.146358
0.146358
0.146358
0.146358
0.146359
0.146359
0.146359
0.14636
0.14636
0.14636
0.14636
0.146361
0.146361
0.146362
0.146362
0.146362
0.146363
0.146363
0.146364
0.146364
0.146364
0.146365
0.146365
0.146366
0.146366
0.146367
0.146367
0.146367
0.146368
0.146368
0.146368
0.146368
0.146369
0.146369
0.146369
0.146369
0.146369
0.146369
0.146369
0.146369
0.14637
0.14637
0.14637
0.14637
0.146371
0.146371
0.146372
0.146373
0.146374
0.146375
0.146377
0.146379
0.146382
0.146385
0.146389
0.146393
0.146399
0.146405
0.146412
0.14642
0.146429
0.146438
0.146449
0.146461
0.146473
0.146486
0.146499
0.146513
0.146527
0.146541
0.146555
0.146568
0.146572
0.146565
0.146551
0.148487
0.147673
0.147768
0.1471
0.146867
0.146927
0.146988
0.147007
0.147009
0.146928
0.146692
7.76065
1.05678
0.337385
0.197627
0.160475
0.149901
0.147133
0.146504
0.14638
0.146359
0.146356
0.146356
0.146356
0.146356
0.146356
0.146356
0.146356
0.146357
0.146357
0.146357
0.146357
0.146357
0.146357
0.146358
0.146358
0.146358
0.146358
0.146358
0.146359
0.146359
0.146359
0.14636
0.14636
0.14636
0.146361
0.146361
0.146361
0.146362
0.146362
0.146363
0.146363
0.146363
0.146364
0.146364
0.146365
0.146365
0.146366
0.146366
0.146367
0.146367
0.146367
0.146368
0.146368
0.146369
0.146369
0.146369
0.146369
0.14637
0.14637
0.14637
0.14637
0.146371
0.146371
0.146371
0.146372
0.146372
0.146373
0.146373
0.146374
0.146374
0.146375
0.146376
0.146378
0.146379
0.146381
0.146384
0.146387
0.146391
0.146395
0.1464
0.146406
0.146413
0.146421
0.14643
0.146439
0.14645
0.146462
0.146475
0.146488
0.146502
0.146517
0.146532
0.146548
0.146563
0.146578
0.146593
0.146597
0.146593
0.146567
0.148458
0.14771
0.147836
0.147175
0.146877
0.146952
0.14701
0.147036
0.147041
0.146957
0.146711
7.7606
1.05676
0.33738
0.197625
0.160474
0.149901
0.147133
0.146504
0.146381
0.146359
0.146356
0.146356
0.146356
0.146356
0.146356
0.146356
0.146356
0.146357
0.146357
0.146357
0.146357
0.146357
0.146357
0.146358
0.146358
0.146358
0.146358
0.146359
0.146359
0.146359
0.146359
0.14636
0.14636
0.14636
0.146361
0.146361
0.146362
0.146362
0.146362
0.146363
0.146363
0.146364
0.146364
0.146365
0.146365
0.146366
0.146366
0.146367
0.146367
0.146368
0.146368
0.146369
0.146369
0.146369
0.14637
0.14637
0.146371
0.146371
0.146371
0.146371
0.146372
0.146372
0.146373
0.146374
0.146374
0.146375
0.146375
0.146376
0.146377
0.146378
0.146379
0.146381
0.146382
0.146384
0.146387
0.14639
0.146394
0.146398
0.146403
0.146409
0.146416
0.146423
0.146432
0.146442
0.146452
0.146464
0.146477
0.146491
0.146506
0.146522
0.146538
0.146555
0.146572
0.146589
0.146606
0.146623
0.146627
0.146626
0.146587
0.148473
0.147777
0.147931
0.147268
0.146912
0.146991
0.14705
0.147078
0.147084
0.146994
0.146735
7.76054
1.05674
0.337375
0.197623
0.160473
0.149901
0.147133
0.146504
0.146381
0.14636
0.146356
0.146356
0.146356
0.146356
0.146356
0.146356
0.146357
0.146357
0.146357
0.146357
0.146357
0.146357
0.146358
0.146358
0.146358
0.146358
0.146358
0.146359
0.146359
0.146359
0.14636
0.14636
0.14636
0.146361
0.146361
0.146361
0.146362
0.146362
0.146363
0.146363
0.146363
0.146364
0.146364
0.146365
0.146365
0.146366
0.146366
0.146367
0.146368
0.146368
0.146369
0.146369
0.14637
0.14637
0.146371
0.146371
0.146372
0.146372
0.146373
0.146373
0.146374
0.146374
0.146375
0.146376
0.146377
0.146378
0.146378
0.146379
0.146381
0.146382
0.146383
0.146385
0.146387
0.14639
0.146393
0.146397
0.146401
0.146406
0.146412
0.146419
0.146426
0.146435
0.146444
0.146455
0.146468
0.146481
0.146495
0.146511
0.146528
0.146545
0.146564
0.146582
0.146601
0.14662
0.146639
0.146658
0.146663
0.146666
0.146613
0.148527
0.147876
0.148061
0.147381
0.146963
0.147046
0.147105
0.147134
0.147138
0.147041
0.146764
7.76048
1.05673
0.33737
0.197622
0.160473
0.149901
0.147133
0.146504
0.146381
0.14636
0.146357
0.146356
0.146356
0.146356
0.146356
0.146357
0.146357
0.146357
0.146357
0.146357
0.146357
0.146357
0.146358
0.146358
0.146358
0.146358
0.146359
0.146359
0.146359
0.146359
0.14636
0.14636
0.14636
0.146361
0.146361
0.146362
0.146362
0.146362
0.146363
0.146363
0.146364
0.146364
0.146365
0.146365
0.146366
0.146366
0.146367
0.146368
0.146368
0.146369
0.146369
0.14637
0.146371
0.146371
0.146372
0.146372
0.146373
0.146374
0.146374
0.146375
0.146376
0.146377
0.146378
0.146379
0.14638
0.146381
0.146382
0.146383
0.146385
0.146386
0.146388
0.146391
0.146393
0.146397
0.1464
0.146405
0.14641
0.146415
0.146422
0.14643
0.146438
0.146448
0.146459
0.146472
0.146485
0.1465
0.146517
0.146534
0.146553
0.146573
0.146594
0.146615
0.146636
0.146657
0.146678
0.146701
0.146706
0.146715
0.146646
0.148617
0.148009
0.148225
0.147501
0.147028
0.147115
0.147177
0.147205
0.147207
0.147099
0.146799
7.76041
1.05671
0.337365
0.19762
0.160472
0.149901
0.147133
0.146504
0.146381
0.14636
0.146357
0.146356
0.146356
0.146356
0.146357
0.146357
0.146357
0.146357
0.146357
0.146357
0.146357
0.146358
0.146358
0.146358
0.146358
0.146358
0.146359
0.146359
0.146359
0.14636
0.14636
0.14636
0.146361
0.146361
0.146361
0.146362
0.146362
0.146363
0.146363
0.146364
0.146364
0.146365
0.146365
0.146366
0.146366
0.146367
0.146367
0.146368
0.146369
0.146369
0.14637
0.146371
0.146372
0.146372
0.146373
0.146374
0.146374
0.146375
0.146376
0.146377
0.146378
0.146379
0.14638
0.146381
0.146383
0.146384
0.146386
0.146387
0.146389
0.146391
0.146394
0.146397
0.1464
0.146404
0.146408
0.146413
0.146419
0.146426
0.146434
0.146443
0.146453
0.146464
0.146477
0.146491
0.146506
0.146524
0.146542
0.146562
0.146584
0.146606
0.146629
0.146653
0.146678
0.146702
0.146726
0.146753
0.146757
0.146775
0.146686
0.148739
0.14817
0.148424
0.147664
0.147118
0.147207
0.147267
0.147292
0.14729
0.147168
0.146842
7.76034
1.05669
0.33736
0.197618
0.160472
0.149901
0.147133
0.146504
0.146381
0.14636
0.146357
0.146356
0.146356
0.146357
0.146357
0.146357
0.146357
0.146357
0.146357
0.146357
0.146358
0.146358
0.146358
0.146358
0.146358
0.146359
0.146359
0.146359
0.146359
0.14636
0.14636
0.14636
0.146361
0.146361
0.146362
0.146362
0.146362
0.146363
0.146363
0.146364
0.146364
0.146365
0.146365
0.146366
0.146367
0.146367
0.146368
0.146369
0.146369
0.14637
0.146371
0.146372
0.146373
0.146373
0.146374
0.146375
0.146376
0.146377
0.146378
0.146379
0.14638
0.146382
0.146383
0.146384
0.146386
0.146388
0.14639
0.146392
0.146394
0.146397
0.1464
0.146404
0.146408
0.146412
0.146418
0.146424
0.146431
0.146438
0.146447
0.146458
0.146469
0.146482
0.146497
0.146513
0.146531
0.146551
0.146572
0.146595
0.14662
0.146645
0.146672
0.1467
0.146728
0.146756
0.146784
0.146815
0.14682
0.146849
0.146735
0.148893
0.148362
0.148674
0.147876
0.147228
0.147321
0.147378
0.147398
0.14739
0.147251
0.146892
7.76026
1.05667
0.337355
0.197617
0.160471
0.149901
0.147133
0.146504
0.146381
0.14636
0.146357
0.146357
0.146357
0.146357
0.146357
0.146357
0.146357
0.146357
0.146357
0.146357
0.146358
0.146358
0.146358
0.146358
0.146358
0.146359
0.146359
0.146359
0.14636
0.14636
0.14636
0.146361
0.146361
0.146361
0.146362
0.146362
0.146363
0.146363
0.146364
0.146364
0.146365
0.146365
0.146366
0.146366
0.146367
0.146368
0.146369
0.146369
0.14637
0.146371
0.146372
0.146373
0.146374
0.146374
0.146375
0.146376
0.146377
0.146379
0.14638
0.146381
0.146383
0.146384
0.146386
0.146388
0.14639
0.146392
0.146394
0.146397
0.1464
0.146403
0.146407
0.146411
0.146416
0.146422
0.146428
0.146435
0.146443
0.146453
0.146463
0.146475
0.146489
0.146504
0.146521
0.14654
0.14656
0.146583
0.146608
0.146634
0.146662
0.146692
0.146723
0.146755
0.146788
0.146821
0.146853
0.146891
0.146895
0.14694
0.146796
0.149079
0.148595
0.148978
0.148115
0.147355
0.147455
0.147509
0.147522
0.147507
0.147348
0.14695
7.76018
1.05666
0.337351
0.197615
0.160471
0.149901
0.147133
0.146504
0.146381
0.14636
0.146357
0.146357
0.146357
0.146357
0.146357
0.146357
0.146357
0.146357
0.146357
0.146358
0.146358
0.146358
0.146358
0.146358
0.146359
0.146359
0.146359
0.146359
0.14636
0.14636
0.14636
0.146361
0.146361
0.146362
0.146362
0.146362
0.146363
0.146363
0.146364
0.146364
0.146365
0.146366
0.146366
0.146367
0.146368
0.146368
0.146369
0.14637
0.146371
0.146372
0.146373
0.146374
0.146375
0.146376
0.146377
0.146378
0.146379
0.14638
0.146382
0.146384
0.146385
0.146387
0.146389
0.146392
0.146394
0.146396
0.146399
0.146403
0.146406
0.14641
0.146415
0.14642
0.146426
0.146432
0.14644
0.146448
0.146458
0.146469
0.146481
0.146496
0.146511
0.146529
0.146549
0.146571
0.146595
0.146621
0.14665
0.146681
0.146714
0.146748
0.146785
0.146822
0.146861
0.1469
0.146938
0.146984
0.146987
0.147053
0.146871
0.149298
0.14887
0.149348
0.148411
0.147508
0.147614
0.147662
0.147667
0.147642
0.147459
0.147017
7.76009
1.05664
0.337346
0.197614
0.16047
0.1499
0.147134
0.146505
0.146381
0.14636
0.146357
0.146357
0.146357
0.146357
0.146357
0.146357
0.146357
0.146357
0.146358
0.146358
0.146358
0.146358
0.146358
0.146359
0.146359
0.146359
0.146359
0.14636
0.14636
0.14636
0.146361
0.146361
0.146361
0.146362
0.146362
0.146363
0.146363
0.146364
0.146364
0.146365
0.146365
0.146366
0.146367
0.146367
0.146368
0.146369
0.14637
0.146371
0.146372
0.146373
0.146374
0.146375
0.146376
0.146377
0.146378
0.14638
0.146381
0.146383
0.146384
0.146386
0.146388
0.146391
0.146393
0.146396
0.146398
0.146401
0.146405
0.146409
0.146413
0.146418
0.146423
0.14643
0.146437
0.146444
0.146453
0.146463
0.146475
0.146488
0.146503
0.146519
0.146538
0.146559
0.146582
0.146608
0.146636
0.146667
0.1467
0.146736
0.146775
0.146816
0.146859
0.146903
0.146949
0.146995
0.14704
0.147098
0.147099
0.147193
0.146965
0.149552
0.149193
0.149794
0.148782
0.147691
0.1478
0.14784
0.147833
0.147796
0.147585
0.147093
7.76
1.05662
0.337342
0.197612
0.16047
0.1499
0.147134
0.146505
0.146381
0.14636
0.146357
0.146357
0.146357
0.146357
0.146357
0.146357
0.146357
0.146358
0.146358
0.146358
0.146358
0.146358
0.146358
0.146359
0.146359
0.146359
0.146359
0.14636
0.14636
0.14636
0.146361
0.146361
0.146362
0.146362
0.146362
0.146363
0.146363
0.146364
0.146364
0.146365
0.146366
0.146366
0.146367
0.146368
0.146369
0.14637
0.14637
0.146371
0.146372
0.146374
0.146375
0.146376
0.146377
0.146378
0.14638
0.146381
0.146383
0.146385
0.146387
0.146389
0.146391
0.146394
0.146397
0.1464
0.146403
0.146407
0.146411
0.146416
0.146421
0.146427
0.146433
0.14644
0.146449
0.146458
0.146469
0.146481
0.146494
0.146509
0.146527
0.146546
0.146568
0.146593
0.14662
0.146651
0.146684
0.146721
0.14676
0.146803
0.146849
0.146897
0.146948
0.147001
0.147056
0.147111
0.147165
0.147238
0.147237
0.147367
0.147081
0.149846
0.149573
0.150308
0.149246
0.14791
0.148018
0.148045
0.148022
0.147968
0.147724
0.147177
7.75991
1.05661
0.337337
0.197611
0.16047
0.1499
0.147134
0.146505
0.146382
0.14636
0.146357
0.146357
0.146357
0.146357
0.146357
0.146357
0.146358
0.146358
0.146358
0.146358
0.146358
0.146358
0.146359
0.146359
0.146359
0.146359
0.14636
0.14636
0.14636
0.146361
0.146361
0.146361
0.146362
0.146362
0.146363
0.146363
0.146364
0.146364
0.146365
0.146365
0.146366
0.146367
0.146368
0.146368
0.146369
0.14637
0.146371
0.146372
0.146373
0.146374
0.146376
0.146377
0.146378
0.14638
0.146382
0.146383
0.146385
0.146387
0.14639
0.146392
0.146395
0.146398
0.146401
0.146405
0.146409
0.146413
0.146418
0.146423
0.146429
0.146436
0.146444
0.146453
0.146462
0.146473
0.146486
0.1465
0.146516
0.146534
0.146555
0.146578
0.146604
0.146633
0.146666
0.146702
0.146741
0.146785
0.146832
0.146883
0.146937
0.146995
0.147056
0.14712
0.147186
0.147253
0.147319
0.147411
0.147407
0.147585
0.147228
0.150182
0.150017
0.150898
0.149824
0.14817
0.148271
0.148279
0.148234
0.148158
0.147875
0.147269
7.75981
1.05659
0.337333
0.197609
0.160469
0.1499
0.147134
0.146505
0.146382
0.146361
0.146357
0.146357
0.146357
0.146357
0.146357
0.146358
0.146358
0.146358
0.146358
0.146358
0.146358
0.146359
0.146359
0.146359
0.146359
0.146359
0.14636
0.14636
0.14636
0.146361
0.146361
0.146362
0.146362
0.146362
0.146363
0.146363
0.146364
0.146365
0.146365
0.146366
0.146367
0.146367
0.146368
0.146369
0.14637
0.146371
0.146372
0.146373
0.146374
0.146375
0.146377
0.146378
0.14638
0.146382
0.146383
0.146385
0.146387
0.14639
0.146392
0.146395
0.146398
0.146402
0.146406
0.14641
0.146414
0.146419
0.146425
0.146432
0.146439
0.146447
0.146456
0.146466
0.146478
0.146491
0.146506
0.146523
0.146542
0.146563
0.146588
0.146615
0.146646
0.146681
0.146719
0.146762
0.146809
0.146861
0.146918
0.146979
0.147044
0.147114
0.147188
0.147266
0.147346
0.147428
0.147509
0.147626
0.147616
0.14786
0.147413
0.150567
0.150534
0.15158
0.150509
0.148483
0.148563
0.148544
0.148469
0.148365
0.148036
0.147367
7.7597
1.05658
0.337329
0.197608
0.160469
0.1499
0.147134
0.146505
0.146382
0.146361
0.146358
0.146357
0.146357
0.146357
0.146358
0.146358
0.146358
0.146358
0.146358
0.146358
0.146358
0.146359
0.146359
0.146359
0.146359
0.14636
0.14636
0.14636
0.146361
0.146361
0.146361
0.146362
0.146362
0.146363
0.146363
0.146364
0.146364
0.146365
0.146366
0.146366
0.146367
0.146368
0.146369
0.14637
0.14637
0.146372
0.146373
0.146374
0.146375
0.146377
0.146378
0.14638
0.146381
0.146383
0.146385
0.146387
0.14639
0.146392
0.146395
0.146399
0.146402
0.146406
0.14641
0.146415
0.146421
0.146426
0.146433
0.146441
0.146449
0.146458
0.146469
0.146481
0.146495
0.14651
0.146528
0.146548
0.146571
0.146596
0.146625
0.146658
0.146695
0.146737
0.146783
0.146834
0.14689
0.146953
0.14702
0.147094
0.147173
0.147258
0.147349
0.147443
0.147542
0.147644
0.147743
0.147894
0.147877
0.148207
0.147648
0.151008
0.151138
0.152376
0.151324
0.148863
0.148898
0.148842
0.148726
0.148585
0.148202
0.147469
7.7596
1.05656
0.337325
0.197607
0.160468
0.1499
0.147134
0.146505
0.146382
0.146361
0.146358
0.146357
0.146357
0.146358
0.146358
0.146358
0.146358
0.146358
0.146358
0.146358
0.146359
0.146359
0.146359
0.146359
0.14636
0.14636
0.14636
0.14636
0.146361
0.146361
0.146362
0.146362
0.146362
0.146363
0.146363
0.146364
0.146365
0.146365
0.146366
0.146367
0.146367
0.146368
0.146369
0.14637
0.146371
0.146372
0.146373
0.146375
0.146376
0.146378
0.146379
0.146381
0.146383
0.146385
0.146387
0.14639
0.146392
0.146395
0.146399
0.146402
0.146406
0.146411
0.146416
0.146421
0.146427
0.146434
0.146442
0.146451
0.14646
0.146471
0.146484
0.146498
0.146514
0.146533
0.146553
0.146577
0.146604
0.146635
0.146669
0.146708
0.146752
0.146802
0.146857
0.146919
0.146987
0.147062
0.147144
0.147234
0.147331
0.147434
0.147545
0.147662
0.147784
0.147911
0.148033
0.148229
0.148202
0.148646
0.147947
0.151508
0.151849
0.15331
0.1523
0.149325
0.149282
0.149172
0.149004
0.148817
0.14837
0.147574
7.75948
1.05655
0.337321
0.197605
0.160468
0.1499
0.147134
0.146505
0.146382
0.146361
0.146358
0.146358
0.146358
0.146358
0.146358
0.146358
0.146358
0.146358
0.146358
0.146359
0.146359
0.146359
0.146359
0.146359
0.14636
0.14636
0.14636
0.146361
0.146361
0.146361
0.146362
0.146362
0.146363
0.146363
0.146364
0.146364
0.146365
0.146366
0.146366
0.146367
0.146368
0.146369
0.14637
0.146371
0.146372
0.146373
0.146374
0.146376
0.146377
0.146379
0.14638
0.146382
0.146384
0.146387
0.146389
0.146392
0.146395
0.146398
0.146402
0.146406
0.146411
0.146416
0.146421
0.146428
0.146435
0.146442
0.146451
0.146461
0.146473
0.146486
0.1465
0.146517
0.146536
0.146557
0.146582
0.14661
0.146642
0.146678
0.14672
0.146766
0.146819
0.146879
0.146946
0.14702
0.147103
0.147194
0.147294
0.147404
0.147522
0.14765
0.147786
0.147931
0.148084
0.148243
0.148395
0.148651
0.14861
0.149207
0.148331
0.15207
0.152672
0.154401
0.153448
0.149878
0.149719
0.149536
0.149302
0.149056
0.148537
0.14768
7.75937
1.05653
0.337317
0.197604
0.160468
0.1499
0.147134
0.146505
0.146382
0.146361
0.146358
0.146358
0.146358
0.146358
0.146358
0.146358
0.146358
0.146358
0.146359
0.146359
0.146359
0.146359
0.146359
0.14636
0.14636
0.14636
0.14636
0.146361
0.146361
0.146362
0.146362
0.146362
0.146363
0.146363
0.146364
0.146365
0.146365
0.146366
0.146367
0.146367
0.146368
0.146369
0.14637
0.146371
0.146372
0.146374
0.146375
0.146377
0.146378
0.14638
0.146382
0.146384
0.146386
0.146389
0.146391
0.146394
0.146398
0.146401
0.146405
0.14641
0.146415
0.146421
0.146427
0.146434
0.146442
0.146451
0.146462
0.146473
0.146486
0.146501
0.146518
0.146538
0.14656
0.146585
0.146615
0.146648
0.146686
0.146729
0.146778
0.146834
0.146897
0.14697
0.147051
0.147141
0.147242
0.147353
0.147476
0.147611
0.147757
0.147914
0.148083
0.148264
0.148455
0.148656
0.148846
0.149184
0.149125
0.149926
0.148827
0.15269
0.153512
0.155617
0.154842
0.150572
0.150229
0.14994
0.149615
0.149295
0.148694
0.147786
7.75925
1.05652
0.337313
0.197603
0.160467
0.1499
0.147134
0.146506
0.146382
0.146361
0.146358
0.146358
0.146358
0.146358
0.146358
0.146358
0.146358
0.146358
0.146359
0.146359
0.146359
0.146359
0.14636
0.14636
0.14636
0.14636
0.146361
0.146361
0.146361
0.146362
0.146362
0.146363
0.146363
0.146364
0.146364
0.146365
0.146366
0.146366
0.146367
0.146368
0.146369
0.14637
0.146371
0.146372
0.146373
0.146374
0.146376
0.146377
0.146379
0.146381
0.146383
0.146385
0.146388
0.14639
0.146393
0.146397
0.1464
0.146405
0.146409
0.146414
0.14642
0.146426
0.146433
0.146442
0.146451
0.146461
0.146473
0.146486
0.146501
0.146519
0.146538
0.146561
0.146587
0.146617
0.146651
0.14669
0.146735
0.146787
0.146846
0.146914
0.14699
0.147076
0.147175
0.147286
0.147409
0.147546
0.147697
0.147863
0.148044
0.14824
0.148451
0.148676
0.148917
0.149172
0.149412
0.149857
0.149776
0.150846
0.149468
0.153334
0.15435
0.156985
0.156565
0.151519
0.150881
0.150453
0.150018
0.149604
0.148898
0.147916
7.75912
1.0565
0.337309
0.197602
0.160467
0.1499
0.147134
0.146506
0.146382
0.146361
0.146358
0.146358
0.146358
0.146358
0.146358
0.146358
0.146358
0.146359
0.146359
0.146359
0.146359
0.146359
0.14636
0.14636
0.14636
0.146361
0.146361
0.146361
0.146362
0.146362
0.146362
0.146363
0.146363
0.146364
0.146365
0.146365
0.146366
0.146367
0.146367
0.146368
0.146369
0.14637
0.146371
0.146373
0.146374
0.146375
0.146377
0.146378
0.14638
0.146382
0.146384
0.146387
0.14639
0.146392
0.146396
0.146399
0.146403
0.146408
0.146413
0.146419
0.146425
0.146432
0.14644
0.146449
0.14646
0.146471
0.146485
0.1465
0.146517
0.146537
0.14656
0.146587
0.146617
0.146652
0.146692
0.146739
0.146792
0.146854
0.146925
0.147006
0.147099
0.147203
0.147323
0.14746
0.147612
0.147781
0.147968
0.148174
0.148399
0.148643
0.148907