/*--------------------------------*- C++ -*----------------------------------*\
| =========                 |                                                 |
| \\      /  F ield         | OpenFOAM: The Open Source CFD Toolbox           |
|  \\    /   O peration     | Version:  v2106                                 |
|   \\  /    A nd           | Website:  www.openfoam.com                      |
|    \\/     M anipulation  |                                                 |
\*---------------------------------------------------------------------------*/
FoamFile
{
    version     2.0;
    format      ascii;
    arch        "LSB;label=32;scalar=64";
    class       volScalarField;
    location    "0.4";
    object      p;
}
// * * * * * * * * * * * * * * * * * * * * * * * * * * * * * * * * * * * * * //

dimensions      [1 -1 -2 0 0 0 0];

internalField   nonuniform List<scalar> 
29678
(
14641.6
14494.4
14347.3
14200.1
14053
13905.8
13758.7
13611.6
13464.4
13317.3
13170.1
13023
12875.8
12728.7
12581.5
12434.4
12287.2
12140.1
11992.9
11845.8
11698.6
11551.5
11404.3
11257.2
11110
10962.9
10815.8
10668.6
10521.5
10374.3
10227.2
10080
9932.89
9785.74
9638.6
9491.45
9344.31
9197.17
9050.02
8902.88
8755.74
8608.6
8461.45
8314.31
8167.17
8020.03
7872.88
7725.74
7578.6
7431.46
7284.32
7137.18
6990.03
6842.89
6695.75
6548.61
6401.47
6254.33
6107.19
5960.04
5812.9
5665.76
5518.62
5371.48
5224.33
5077.19
4930.05
4782.9
4635.76
4488.61
4341.47
4194.32
4047.18
3900.03
3752.88
3605.73
3458.58
3311.43
3164.28
3017.13
2869.98
2722.82
2575.67
2428.51
2281.35
2134.19
1987.03
1839.87
1692.7
1545.54
1398.37
1251.21
1104.04
956.866
809.694
662.519
515.342
368.166
221.005
73.8649
-0.0594881
-0.30279
-0.522959
-0.669718
-0.865943
-1.02969
-1.21427
-1.38757
-1.56856
-1.74847
14641.9
14494.8
14347.6
14200.5
14053.3
13906.2
13759.1
13611.9
13464.8
13317.6
13170.5
13023.3
12876.2
12729
12581.9
12434.7
12287.6
12140.5
11993.3
11846.2
11699
11551.9
11404.8
11257.6
11110.5
10963.4
10816.2
10669.1
10521.9
10374.8
10227.7
10080.5
9933.41
9786.28
9639.14
9492.01
9344.88
9197.75
9050.62
8903.49
8756.36
8609.23
8462.11
8314.98
8167.85
8020.73
7873.6
7726.47
7579.35
7432.22
7285.1
7137.98
6990.85
6843.73
6696.6
6549.48
6402.36
6255.23
6108.11
5960.98
5813.86
5666.73
5519.61
5372.48
5225.35
5078.23
4931.1
4783.97
4636.83
4489.7
4342.57
4195.43
4048.29
3901.15
3754.01
3606.86
3459.71
3312.56
3165.41
3018.25
2871.09
2723.93
2576.76
2429.59
2282.41
2135.24
1988.05
1840.87
1693.68
1546.48
1399.28
1252.08
1104.87
957.653
810.434
663.209
515.978
368.74
221.522
74.264
0.146716
-0.299454
-0.51668
-0.6654
-0.861218
-1.02651
-1.21118
-1.38612
-1.56772
-1.74821
14642.3
14495.1
14348
14200.8
14053.7
13906.5
13759.4
13612.3
13465.1
13318
13170.8
13023.7
12876.5
12729.4
12582.3
12435.1
12288
12140.9
11993.7
11846.6
11699.5
11552.3
11405.2
11258.1
11110.9
10963.8
10816.7
10669.5
10522.4
10375.3
10228.2
10081.1
9933.93
9786.81
9639.69
9492.57
9345.45
9198.33
9051.22
8904.1
8756.99
8609.87
8462.76
8315.65
8168.54
8021.43
7874.32
7727.21
7580.1
7432.99
7285.88
7138.78
6991.67
6844.56
6697.46
6550.35
6403.24
6256.14
6109.03
5961.92
5814.82
5667.71
5520.6
5373.49
5226.37
5079.26
4932.15
4785.03
4637.91
4490.79
4343.66
4196.53
4049.4
3902.27
3755.13
3607.99
3460.84
3313.69
3166.53
3019.37
2872.21
2725.03
2577.86
2430.67
2283.48
2136.28
1989.08
1841.87
1694.65
1547.42
1400.19
1252.95
1105.7
958.44
811.174
663.901
516.621
369.326
222.065
74.6942
0.407841
-0.297249
-0.506039
-0.663897
-0.856951
-1.02668
-1.21112
-1.38772
-1.56904
-1.74876
14642.6
14495.5
14348.3
14201.2
14054
13906.9
13759.7
13612.6
13465.5
13318.3
13171.2
13024
12876.9
12729.8
12582.6
12435.5
12288.4
12141.2
11994.1
11847
11699.9
11552.7
11405.6
11258.5
11111.4
10964.3
10817.1
10670
10522.9
10375.8
10228.7
10081.6
9934.45
9787.34
9640.23
9493.12
9346.02
9198.91
9051.81
8904.71
8757.61
8610.51
8463.41
8316.32
8169.22
8022.12
7875.03
7727.94
7580.85
7433.76
7286.67
7139.58
6992.49
6845.4
6698.31
6551.22
6404.13
6257.04
6109.95
5962.86
5815.77
5668.68
5521.59
5374.49
5227.4
5080.3
4933.2
4786.09
4638.99
4491.88
4344.76
4197.64
4050.52
3903.39
3756.26
3609.12
3461.98
3314.82
3167.67
3020.5
2873.33
2726.15
2578.96
2431.76
2284.55
2137.34
1990.11
1842.88
1695.63
1548.37
1401.1
1253.82
1106.53
959.234
811.922
664.6
517.269
369.917
222.612
75.1299
0.641663
-0.293484
-0.496769
-0.660507
-0.851878
-1.02425
-1.20859
-1.38644
-1.56822
-1.74849
14643
14495.8
14348.7
14201.5
14054.4
13907.2
13760.1
13613
13465.8
13318.7
13171.5
13024.4
12877.3
12730.1
12583
12435.9
12288.8
12141.6
11994.5
11847.4
11700.3
11553.2
11406
11258.9
11111.8
10964.7
10817.6
10670.5
10523.4
10376.3
10229.2
10082.1
9934.97
9787.87
9640.77
9493.68
9346.59
9199.49
9052.4
8905.32
8758.23
8611.15
8464.06
8316.98
8169.9
8022.82
7875.75
7728.67
7581.59
7434.52
7287.45
7140.38
6993.3
6846.23
6699.16
6552.09
6405.02
6257.95
6110.88
5963.81
5816.73
5669.66
5522.58
5375.5
5228.42
5081.34
4934.25
4787.16
4640.07
4492.97
4345.87
4198.76
4051.64
3904.52
3757.39
3610.26
3463.12
3315.97
3168.81
3021.64
2874.46
2727.27
2580.07
2432.86
2285.63
2138.4
1991.15
1843.89
1696.62
1549.33
1402.03
1254.71
1107.38
960.038
812.68
665.309
517.927
370.517
223.168
75.5846
0.877565
-0.290522
-0.488907
-0.658148
-0.847775
-1.02298
-1.20707
-1.38607
-1.56794
-1.74852
14643.3
14496.2
14349
14201.9
14054.7
13907.6
13760.4
13613.3
13466.2
13319
13171.9
13024.8
12877.6
12730.5
12583.4
12436.3
12289.1
12142
11994.9
11847.8
11700.7
11553.6
11406.5
11259.4
11112.3
10965.1
10818
10670.9
10523.9
10376.8
10229.7
10082.6
9935.48
9788.4
9641.31
9494.23
9347.15
9200.07
9053
8905.92
8758.85
8611.78
8464.71
8317.65
8170.58
8023.52
7876.46
7729.4
7582.34
7435.28
7288.23
7141.17
6994.12
6847.07
6700.01
6552.96
6405.91
6258.86
6111.8
5964.75
5817.69
5670.64
5523.58
5376.51
5229.45
5082.38
4935.31
4788.23
4641.15
4494.07
4346.97
4199.88
4052.77
3905.66
3758.54
3611.4
3464.26
3317.11
3169.95
3022.78
2875.6
2728.4
2581.19
2433.97
2286.73
2139.48
1992.21
1844.92
1697.62
1550.3
1402.97
1255.61
1108.24
960.856
813.452
666.032
518.598
371.129
223.735
76.055
1.11604
-0.287429
-0.482529
-0.655485
-0.843846
-1.02105
-1.20506
-1.38505
-1.56726
-1.74837
14643.6
14496.5
14349.3
14202.2
14055.1
13907.9
13760.8
13613.6
13466.5
13319.4
13172.3
13025.1
12878
12730.9
12583.8
12436.6
12289.5
12142.4
11995.3
11848.2
11701.1
11554
11406.9
11259.8
11112.7
10965.6
10818.5
10671.4
10524.3
10377.2
10230.2
10083.1
9936
9788.92
9641.85
9494.78
9347.71
9200.65
9053.59
8906.53
8759.47
8612.41
8465.36
8318.31
8171.26
8024.22
7877.17
7730.13
7583.09
7436.05
7289.01
7141.97
6994.94
6847.9
6700.87
6553.83
6406.8
6259.76
6112.73
5965.69
5818.65
5671.61
5524.57
5377.53
5230.48
5083.43
4936.37
4789.31
4642.24
4495.17
4348.09
4201
4053.91
3906.8
3759.69
3612.56
3465.42
3318.28
3171.11
3023.94
2876.75
2729.55
2582.33
2435.09
2287.84
2140.57
1993.28
1845.97
1698.64
1551.29
1403.92
1256.53
1109.12
961.691
814.241
666.771
519.284
371.757
224.317
76.5394
1.35887
-0.284698
-0.47724
-0.653126
-0.840492
-1.0193
-1.20333
-1.38412
-1.56665
-1.74823
14644
14496.8
14349.7
14202.5
14055.4
13908.3
13761.1
13614
13466.9
13319.7
13172.6
13025.5
12878.4
12731.2
12584.1
12437
12289.9
12142.8
11995.7
11848.6
11701.5
11554.4
11407.3
11260.2
11113.1
10966
10819
10671.9
10524.8
10377.7
10230.6
10083.6
9936.51
9789.45
9642.39
9495.33
9348.28
9201.22
9054.17
8907.13
8760.09
8613.04
8466.01
8318.97
8171.94
8024.91
7877.88
7730.85
7583.83
7436.81
7289.79
7142.77
6995.75
6848.74
6701.72
6554.7
6407.69
6260.67
6113.66
5966.64
5819.62
5672.6
5525.57
5378.54
5231.51
5084.48
4937.44
4790.39
4643.34
4496.28
4349.21
4202.14
4055.05
3907.95
3760.85
3613.73
3466.59
3319.45
3172.29
3025.11
2877.92
2730.71
2583.48
2436.23
2288.96
2141.68
1994.37
1847.03
1699.68
1552.3
1404.89
1257.47
1110.02
962.546
815.049
667.529
519.989
372.402
224.915
77.0397
1.60871
-0.282493
-0.4728
-0.650793
-0.83765
-1.01748
-1.20182
-1.38309
-1.56609
-1.74804
14644.3
14497.2
14350
14202.9
14055.7
13908.6
13761.5
13614.3
13467.2
13320.1
13173
13025.8
12878.7
12731.6
12584.5
12437.4
12290.3
12143.2
11996.1
11849
11701.9
11554.8
11407.7
11260.6
11113.6
10966.5
10819.4
10672.3
10525.3
10378.2
10231.1
10084.1
9937.02
9789.97
9642.92
9495.88
9348.83
9201.8
9054.76
8907.73
8760.7
8613.67
8466.65
8319.63
8172.61
8025.6
7878.59
7731.58
7584.57
7437.57
7290.57
7143.57
6996.57
6849.57
6702.57
6555.57
6408.58
6261.58
6114.58
5967.58
5820.58
5673.58
5526.57
5379.57
5232.55
5085.53
4938.51
4791.48
4644.44
4497.4
4350.34
4203.28
4056.21
3909.12
3762.02
3614.91
3467.78
3320.64
3173.48
3026.3
2879.1
2731.89
2584.65
2437.39
2290.11
2142.81
1995.48
1848.12
1700.74
1553.33
1405.89
1258.43
1110.94
963.424
815.88
668.31
520.716
373.068
225.533
77.5587
1.86653
-0.280562
-0.468805
-0.648985
-0.834809
-1.01614
-1.20013
-1.38234
-1.56538
-1.74794
14644.6
14497.5
14350.3
14203.2
14056.1
13908.9
13761.8
13614.7
13467.5
13320.4
13173.3
13026.2
12879.1
12732
12584.9
12437.8
12290.7
12143.6
11996.5
11849.4
11702.3
11555.2
11408.1
11261.1
11114
10966.9
10819.8
10672.8
10525.7
10378.7
10231.6
10084.6
9937.53
9790.49
9643.45
9496.42
9349.39
9202.36
9055.34
8908.32
8761.31
8614.3
8467.29
8320.29
8173.29
8026.29
7879.29
7732.3
7585.31
7438.33
7291.34
7144.36
6997.38
6850.4
6703.42
6556.44
6409.47
6262.49
6115.51
5968.53
5821.55
5674.57
5527.58
5380.59
5233.6
5086.6
4939.59
4792.58
4645.55
4498.52
4351.48
4204.43
4057.37
3910.3
3763.21
3616.1
3468.98
3321.84
3174.68
3027.51
2880.31
2733.09
2585.84
2438.57
2291.28
2143.96
1996.61
1849.23
1701.82
1554.38
1406.92
1259.42
1111.89
964.33
816.739
669.117
521.468
373.758
226.175
78.0994
2.13354
-0.278721
-0.465331
-0.647376
-0.83227
-1.01492
-1.1986
-1.38161
-1.56478
-1.74782
14645
14497.8
14350.7
14203.5
14056.4
13909.3
13762.1
13615
13467.9
13320.8
13173.7
13026.5
12879.4
12732.3
12585.2
12438.1
12291
12143.9
11996.9
11849.8
11702.7
11555.6
11408.5
11261.5
11114.4
10967.3
10820.3
10673.2
10526.2
10379.1
10232.1
10085.1
9938.03
9791
9643.98
9496.96
9349.94
9202.93
9055.92
8908.92
8761.92
8614.92
8467.93
8320.94
8173.95
8026.97
7880
7733.02
7586.05
7439.08
7292.12
7145.15
6998.19
6851.23
6704.27
6557.31
6410.36
6263.4
6116.44
5969.48
5822.52
5675.56
5528.59
5381.62
5234.64
5087.66
4940.67
4793.68
4646.68
4499.66
4352.64
4205.6
4058.55
3911.49
3764.41
3617.31
3470.2
3323.06
3175.91
3028.73
2881.53
2734.31
2587.06
2439.78
2292.47
2145.14
1997.77
1850.37
1702.94
1555.47
1407.97
1260.44
1112.87
965.267
817.628
669.954
522.25
374.476
226.843
78.6649
2.41119
-0.276862
-0.46242
-0.6458
-0.830147
-1.01367
-1.19736
-1.38083
-1.56428
-1.74767
14645.3
14498.1
14351
14203.9
14056.7
13909.6
13762.5
13615.3
13468.2
13321.1
13174
13026.9
12879.8
12732.7
12585.6
12438.5
12291.4
12144.3
11997.2
11850.2
11703.1
11556
11408.9
11261.9
11114.8
10967.8
10820.7
10673.7
10526.6
10379.6
10232.6
10085.6
9938.53
9791.51
9644.5
9497.49
9350.49
9203.49
9056.49
8909.5
8762.52
8615.54
8468.56
8321.59
8174.62
8027.65
7880.69
7733.74
7586.78
7439.83
7292.89
7145.94
6999
6852.06
6705.12
6558.18
6411.25
6264.31
6117.37
5970.43
5823.49
5676.55
5529.6
5382.65
5235.7
5088.74
4941.77
4794.79
4647.81
4500.81
4353.8
4206.78
4059.74
3912.69
3765.63
3618.54
3471.43
3324.31
3177.16
3029.98
2882.78
2735.56
2588.3
2441.02
2293.7
2146.35
1998.96
1851.54
1704.09
1556.59
1409.06
1261.49
1113.89
966.239
818.552
670.826
523.065
375.226
227.541
79.2587
2.70129
-0.274978
-0.460033
-0.644173
-0.828438
-1.01241
-1.19632
-1.38011
-1.56384
-1.74753
14645.6
14498.5
14351.3
14204.2
14057
13909.9
13762.8
13615.7
13468.6
13321.4
13174.3
13027.2
12880.1
12733
12585.9
12438.8
12291.8
12144.7
11997.6
11850.5
11703.5
11556.4
11409.3
11262.3
11115.2
10968.2
10821.2
10674.1
10527.1
10380.1
10233
10086
9939.02
9792.02
9645.02
9498.02
9351.03
9204.04
9057.06
8910.09
8763.12
8616.15
8469.19
8322.23
8175.28
8028.33
7881.39
7734.45
7587.52
7440.58
7293.66
7146.73
6999.81
6852.89
6705.97
6559.05
6412.14
6265.22
6118.3
5971.39
5824.47
5677.55
5530.62
5383.69
5236.76
5089.82
4942.87
4795.91
4648.95
4501.97
4354.98
4207.97
4060.95
3913.92
3766.86
3619.79
3472.69
3325.57
3178.43
3031.26
2884.06
2736.83
2589.57
2442.28
2294.95
2147.59
2000.19
1852.75
1705.27
1557.75
1410.19
1262.59
1114.94
967.25
819.515
671.736
523.918
376.011
228.274
79.8849
3.00593
-0.273124
-0.458051
-0.642569
-0.826984
-1.01124
-1.19538
-1.37944
-1.56344
-1.7474
14645.9
14498.8
14351.6
14204.5
14057.4
13910.2
13763.1
13616
13468.9
13321.8
13174.7
13027.6
12880.5
12733.4
12586.3
12439.2
12292.1
12145
11998
11850.9
11703.8
11556.8
11409.7
11262.7
11115.7
10968.6
10821.6
10674.6
10527.5
10380.5
10233.5
10086.5
9939.51
9792.52
9645.53
9498.55
9351.57
9204.6
9057.63
8910.67
8763.71
8616.76
8469.81
8322.87
8175.94
8029.01
7882.08
7735.16
7588.24
7441.33
7294.42
7147.52
7000.61
6853.71
6706.82
6559.92
6413.02
6266.13
6119.24
5972.34
5825.44
5678.55
5531.64
5384.74
5237.82
5090.91
4943.98
4797.04
4650.1
4503.14
4356.17
4209.18
4062.18
3915.16
3768.12
3621.06
3473.97
3326.86
3179.73
3032.56
2885.37
2738.14
2590.88
2443.58
2296.25
2148.87
2001.46
1854
1706.5
1558.95
1411.36
1263.73
1116.04
968.305
820.521
672.689
524.813
376.837
229.047
80.5479
3.32739
-0.271346
-0.45634
-0.641082
-0.82569
-1.01017
-1.19454
-1.37884
-1.56307
-1.74728
14646.2
14499.1
14352
14204.8
14057.7
13910.6
13763.4
13616.3
13469.2
13322.1
13175
13027.9
12880.8
12733.7
12586.6
12439.5
12292.5
12145.4
11998.3
11851.3
11704.2
11557.2
11410.1
11263.1
11116.1
10969
10822
10675
10528
10381
10234
10087
9940
9793.01
9646.04
9499.06
9352.1
9205.14
9058.19
8911.24
8764.3
8617.36
8470.43
8323.51
8176.59
8029.68
7882.77
7735.86
7588.97
7442.07
7295.18
7148.3
7001.42
6854.54
6707.66
6560.79
6413.91
6267.04
6120.17
5973.3
5826.42
5679.55
5532.67
5385.79
5238.9
5092
4945.1
4798.18
4651.26
4504.32
4357.37
4210.41
4063.42
3916.42
3769.4
3622.35
3475.28
3328.18
3181.05
3033.9
2886.71
2739.48
2592.22
2444.92
2297.58
2150.19
2002.77
1855.29
1707.77
1560.2
1412.58
1264.91
1117.19
969.408
821.576
673.69
525.756
377.708
229.865
81.2529
3.66811
-0.269665
-0.45482
-0.639733
-0.824526
-1.00921
-1.19379
-1.37829
-1.56275
-1.74717
14646.6
14499.4
14352.3
14205.1
14058
13910.9
13763.7
13616.6
13469.5
13322.4
13175.3
13028.2
12881.1
12734
12587
12439.9
12292.8
12145.8
11998.7
11851.6
11704.6
11557.6
11410.5
11263.5
11116.5
10969.4
10822.4
10675.4
10528.4
10381.4
10234.4
10087.5
9940.47
9793.5
9646.54
9499.58
9352.63
9205.68
9058.74
8911.81
8764.88
8617.96
8471.05
8324.14
8177.24
8030.34
7883.45
7736.56
7589.69
7442.81
7295.94
7149.08
7002.21
6855.36
6708.5
6561.65
6414.8
6267.95
6121.1
5974.26
5827.41
5680.55
5533.7
5386.84
5239.98
5093.1
4946.23
4799.34
4652.44
4505.52
4358.59
4211.65
4064.69
3917.7
3770.7
3623.67
3476.61
3329.53
3182.41
3035.27
2888.08
2740.86
2593.6
2446.3
2298.95
2151.56
2004.12
1856.63
1709.09
1561.5
1413.85
1266.15
1118.39
970.565
822.685
674.744
526.752
378.631
230.733
82.0056
4.03077
-0.268095
-0.453447
-0.638512
-0.823478
-1.00834
-1.19311
-1.37781
-1.56246
-1.74707
14646.9
14499.7
14352.6
14205.4
14058.3
13911.2
13764.1
13616.9
13469.8
13322.7
13175.6
13028.5
12881.5
12734.4
12587.3
12440.2
12293.2
12146.1
11999.1
11852
11705
11557.9
11410.9
11263.9
11116.9
10969.8
10822.8
10675.8
10528.8
10381.9
10234.9
10087.9
9940.94
9793.98
9647.03
9500.09
9353.15
9206.21
9059.29
8912.37
8765.46
8618.55
8471.65
8324.76
8177.88
8031
7884.13
7737.26
7590.4
7443.54
7296.69
7149.85
7003.01
6856.17
6709.34
6562.51
6415.69
6268.86
6122.04
5975.21
5828.39
5681.56
5534.73
5387.9
5241.06
5094.22
4947.36
4800.5
4653.62
4506.74
4359.83
4212.91
4065.97
3919.01
3772.02
3625.01
3477.97
3330.91
3183.81
3036.67
2889.5
2742.28
2595.02
2447.72
2300.37
2152.97
2005.53
1858.02
1710.47
1562.85
1415.18
1267.44
1119.64
971.781
823.853
675.859
527.807
379.612
231.657
82.8125
4.41836
-0.266723
-0.452208
-0.637415
-0.82254
-1.00757
-1.19251
-1.37738
-1.5622
-1.74699
14647.1
14500
14352.9
14205.7
14058.6
13911.5
13764.4
13617.2
13470.1
13323
13175.9
13028.9
12881.8
12734.7
12587.6
12440.6
12293.5
12146.4
11999.4
11852.4
11705.3
11558.3
11411.3
11264.3
11117.2
10970.2
10823.2
10676.3
10529.3
10382.3
10235.3
10088.4
9941.41
9794.46
9647.52
9500.59
9353.66
9206.74
9059.83
8912.92
8766.03
8619.14
8472.26
8325.38
8178.51
8031.65
7884.8
7737.95
7591.11
7444.27
7297.44
7150.62
7003.8
6856.99
6710.18
6563.37
6416.57
6269.77
6122.97
5976.17
5829.38
5682.58
5535.77
5388.97
5242.15
5095.34
4948.51
4801.67
4654.83
4507.96
4361.09
4214.19
4067.27
3920.34
3773.38
3626.39
3479.37
3332.32
3185.23
3038.11
2890.95
2743.74
2596.49
2449.19
2301.84
2154.44
2006.98
1859.47
1711.89
1564.26
1416.56
1268.8
1120.96
973.062
825.087
677.039
528.929
380.657
232.646
83.6809
4.83428
-0.265388
-0.451077
-0.636424
-0.821702
-1.00688
-1.19198
-1.377
-1.56197
-1.74691
14647.4
14500.3
14353.2
14206
14058.9
13911.8
13764.7
13617.5
13470.4
13323.3
13176.3
13029.2
12882.1
12735
12587.9
12440.9
12293.8
12146.8
11999.7
11852.7
11705.7
11558.7
11411.6
11264.6
11117.6
10970.6
10823.6
10676.7
10529.7
10382.7
10235.8
10088.8
9941.87
9794.93
9648
9501.08
9354.17
9207.26
9060.36
8913.47
8766.59
8619.72
8472.85
8325.99
8179.14
8032.3
7885.46
7738.63
7591.81
7445
7298.19
7151.39
7004.59
6857.8
6711.01
6564.23
6417.45
6270.68
6123.91
5977.13
5830.36
5683.59
5536.81
5390.04
5243.25
5096.46
4949.67
4802.86
4656.04
4509.21
4362.36
4215.49
4068.6
3921.69
3774.76
3627.79
3480.8
3333.77
3186.7
3039.59
2892.44
2745.25
2598
2450.71
2303.36
2155.96
2008.49
1860.97
1713.38
1565.73
1418.01
1270.22
1122.35
974.413
826.393
678.292
530.124
381.774
233.706
84.6194
5.28242
-0.264168
-0.45006
-0.635543
-0.820967
-1.00629
-1.19152
-1.37668
-1.56178
-1.74685
14647.7
14500.6
14353.4
14206.3
14059.2
13912.1
13764.9
13617.8
13470.7
13323.6
13176.6
13029.5
12882.4
12735.3
12588.3
12441.2
12294.2
12147.1
12000.1
11853
11706
11559
11412
11265
11118
10971
10824
10677.1
10530.1
10383.1
10236.2
10089.3
9942.32
9795.39
9648.47
9501.57
9354.66
9207.77
9060.89
8914.01
8767.14
8620.29
8473.44
8326.59
8179.76
8032.93
7886.12
7739.31
7592.51
7445.71
7298.92
7152.14
7005.37
6858.6
6711.84
6565.08
6418.33
6271.58
6124.84
5978.09
5831.35
5684.61
5537.86
5391.11
5244.36
5097.6
4950.83
4804.06
4657.27
4510.47
4363.65
4216.81
4069.95
3923.07
3776.17
3629.23
3482.26
3335.25
3188.2
3041.11
2893.98
2746.8
2599.57
2452.28
2304.94
2157.53
2010.07
1862.54
1714.94
1567.27
1419.53
1271.71
1123.82
975.841
827.777
679.625
531.401
382.973
234.847
85.6374
5.7672
-0.263067
-0.449164
-0.634778
-0.82034
-1.00579
-1.19114
-1.37641
-1.56162
-1.74679
14648
14500.9
14353.7
14206.6
14059.5
13912.3
13765.2
13618.1
13471
13323.9
13176.8
13029.8
12882.7
12735.6
12588.6
12441.5
12294.5
12147.4
12000.4
11853.4
11706.4
11559.4
11412.4
11265.4
11118.4
10971.4
10824.4
10677.5
10530.5
10383.6
10236.6
10089.7
9942.76
9795.84
9648.94
9502.04
9355.15
9208.27
9061.4
8914.54
8767.69
8620.85
8474.01
8327.19
8180.37
8033.56
7886.76
7739.97
7593.19
7446.42
7299.65
7152.9
7006.15
6859.4
6712.66
6565.93
6419.21
6272.49
6125.77
5979.05
5832.34
5685.62
5538.91
5392.19
5245.47
5098.74
4952.01
4805.27
4658.51
4511.74
4364.96
4218.16
4071.33
3924.48
3777.6
3630.7
3483.75
3336.77
3189.75
3042.68
2895.57
2748.4
2601.18
2453.91
2306.57
2159.17
2011.7
1864.17
1716.56
1568.88
1421.13
1273.29
1125.36
977.352
829.247
681.047
532.768
384.262
236.079
86.7461
6.29373
-0.262089
-0.448399
-0.634139
-0.819829
-1.0054
-1.19085
-1.37621
-1.56151
-1.74676
14648.3
14501.1
14354
14206.9
14059.7
13912.6
13765.5
13618.4
13471.3
13324.2
13177.1
13030.1
12883
12735.9
12588.9
12441.8
12294.8
12147.8
12000.7
11853.7
11706.7
11559.7
11412.7
11265.7
11118.7
10971.8
10824.8
10677.8
10530.9
10384
10237
10090.1
9943.19
9796.29
9649.4
9502.51
9355.64
9208.77
9061.91
8915.07
8768.23
8621.4
8474.58
8327.77
8180.97
8034.18
7887.4
7740.63
7593.87
7447.12
7300.38
7153.64
7006.91
6860.19
6713.48
6566.78
6420.08
6273.38
6126.7
5980.01
5833.32
5686.64
5539.96
5393.27
5246.59
5099.9
4953.2
4806.49
4659.77
4513.04
4366.29
4219.52
4072.73
3925.92
3779.07
3632.2
3485.29
3338.33
3191.34
3044.3
2897.2
2750.06
2602.85
2455.59
2308.26
2160.87
2013.41
1865.87
1718.26
1570.57
1422.8
1274.94
1126.99
978.952
830.811
682.564
534.235
385.653
237.413
87.9583
6.86795
-0.261246
-0.44778
-0.633639
-0.819448
-1.00511
-1.19065
-1.37608
-1.56143
-1.74673
14648.5
14501.4
14354.3
14207.1
14060
13912.9
13765.8
13618.7
13471.6
13324.5
13177.4
13030.3
12883.3
12736.2
12589.2
12442.1
12295.1
12148.1
12001
11854
11707
11560
11413
11266.1
11119.1
10972.1
10825.2
10678.2
10531.3
10384.3
10237.4
10090.5
9943.62
9796.73
9649.84
9502.97
9356.11
9209.25
9062.41
8915.58
8768.76
8621.94
8475.14
8328.35
8181.57
8034.8
7888.03
7741.28
7594.54
7447.81
7301.09
7154.38
7007.67
6860.98
6714.29
6567.62
6420.94
6274.28
6127.62
5980.96
5834.31
5687.66
5541.01
5394.36
5247.71
5101.05
4954.39
4807.72
4661.04
4514.35
4367.64
4220.91
4074.16
3927.38
3780.58
3633.73
3486.86
3339.94
3192.97
3045.96
2898.89
2751.77
2604.58
2457.34
2310.02
2162.64
2015.18
1867.65
1720.04
1572.34
1424.56
1276.69
1128.72
980.65
832.475
684.188
535.811
387.156
238.861
89.2886
7.49669
-0.260559
-0.447331
-0.6333
-0.819217
-1.00497
-1.19056
-1.37603
-1.56141
-1.74673
14648.8
14501.7
14354.5
14207.4
14060.3
13913.2
13766
13618.9
13471.9
13324.8
13177.7
13030.6
12883.6
12736.5
12589.5
12442.4
12295.4
12148.4
12001.3
11854.3
11707.3
11560.3
11413.4
11266.4
11119.4
10972.5
10825.5
10678.6
10531.7
10384.7
10237.8
10090.9
9944.03
9797.15
9650.28
9503.42
9356.57
9209.73
9062.9
8916.08
8769.27
8622.48
8475.69
8328.91
8182.15
8035.4
7888.65
7741.92
7595.2
7448.49
7301.79
7155.11
7008.43
6861.76
6715.1
6568.45
6421.8
6275.17
6128.54
5981.92
5835.3
5688.68
5542.07
5395.45
5248.84
5102.22
4955.6
4808.97
4662.33
4515.68
4369.01
4222.32
4075.61
3928.88
3782.11
3635.31
3488.47
3341.58
3194.65
3047.67
2900.63
2753.54
2606.38
2459.15
2311.85
2164.48
2017.03
1869.5
1721.89
1574.19
1426.4
1278.52
1130.54
982.45
834.248
685.924
537.509
388.785
240.437
90.754
8.18792
-0.260056
-0.447082
-0.633151
-0.819161
-1.00497
-1.19059
-1.37607
-1.56144
-1.74674
14649.1
14501.9
14354.8
14207.6
14060.5
13913.4
13766.3
13619.2
13472.1
13325
13178
13030.9
12883.8
12736.8
12589.7
12442.7
12295.7
12148.7
12001.6
11854.6
11707.6
11560.7
11413.7
11266.7
11119.8
10972.8
10825.9
10678.9
10532
10385.1
10238.2
10091.3
9944.44
9797.57
9650.71
9503.86
9357.02
9210.19
9063.38
8916.57
8769.78
8623
8476.23
8329.47
8182.72
8035.99
7889.26
7742.55
7595.85
7449.17
7302.49
7155.82
7009.17
6862.53
6715.89
6569.27
6422.66
6276.06
6129.46
5982.87
5836.28
5689.7
5543.13
5396.55
5249.98
5103.4
4956.82
4810.23
4663.63
4517.02
4370.4
4223.76
4077.09
3930.4
3783.68
3636.92
3490.12
3343.28
3196.39
3049.44
2902.44
2755.37
2608.24
2461.03
2313.75
2166.4
2018.96
1871.44
1723.83
1576.13
1428.34
1280.45
1132.46
984.358
836.137
687.785
539.338
390.553
242.158
92.3739
8.95094
-0.259777
-0.447079
-0.633228
-0.819314
-1.00515
-1.19078
-1.37622
-1.56154
-1.74678
14649.3
14502.2
14355
14207.9
14060.8
13913.7
13766.6
13619.5
13472.4
13325.3
13178.2
13031.2
12884.1
12737
12590
12443
12296
12148.9
12001.9
11854.9
11707.9
11561
11414
11267
11120.1
10973.1
10826.2
10679.3
10532.4
10385.5
10238.6
10091.7
9944.83
9797.97
9651.12
9504.29
9357.46
9210.65
9063.84
8917.05
8770.27
8623.51
8476.75
8330.01
8183.28
8036.57
7889.86
7743.17
7596.49
7449.83
7303.17
7156.53
7009.9
6863.29
6716.68
6570.09
6423.51
6276.93
6130.37
5983.81
5837.26
5690.72
5544.18
5397.64
5251.11
5104.58
4958.04
4811.49
4664.94
4518.38
4371.81
4225.21
4078.6
3931.95
3785.28
3638.57
3491.82
3345.02
3198.17
3051.27
2904.3
2757.27
2610.16
2462.99
2315.73
2168.39
2020.97
1873.46
1725.86
1578.16
1430.37
1282.49
1134.49
986.38
838.148
689.778
541.311
392.475
244.041
94.1705
9.79654
-0.259773
-0.447369
-0.633579
-0.819716
-1.00556
-1.19113
-1.3765
-1.56172
-1.74684
14649.5
14502.4
14355.3
14208.1
14061
13913.9
13766.8
13619.7
13472.6
13325.5
13178.5
13031.4
12884.4
12737.3
12590.3
12443.2
12296.2
12149.2
12002.2
11855.2
11708.2
11561.3
11414.3
11267.3
11120.4
10973.5
10826.5
10679.6
10532.7
10385.8
10238.9
10092.1
9945.22
9798.37
9651.53
9504.7
9357.89
9211.09
9064.3
8917.52
8770.76
8624
8477.27
8330.54
8183.83
8037.13
7890.45
7743.77
7597.12
7450.47
7303.84
7157.23
7010.63
6864.04
6717.46
6570.89
6424.34
6277.8
6131.26
5984.74
5838.23
5691.72
5545.23
5398.73
5252.24
5105.76
4959.26
4812.76
4666.27
4519.75
4373.23
4226.69
4080.13
3933.54
3786.92
3640.26
3493.56
3346.81
3200.01
3053.15
2906.23
2759.23
2612.16
2465.02
2317.78
2170.47
2023.06
1875.56
1727.97
1580.29
1432.5
1284.62
1136.63
988.52
840.288
691.911
543.439
394.567
246.104
96.1692
10.7372
-0.260105
-0.448019
-0.634257
-0.820415
-1.00621
-1.1917
-1.37694
-1.56199
-1.74694
14649.8
14502.6
14355.5
14208.4
14061.2
13914.1
13767
13619.9
13472.9
13325.8
13178.7
13031.7
12884.6
12737.6
12590.5
12443.5
12296.5
12149.5
12002.5
11855.5
11708.5
11561.6
11414.6
11267.6
11120.7
10973.8
10826.9
10680
10533.1
10386.2
10239.3
10092.4
9945.59
9798.75
9651.92
9505.11
9358.3
9211.52
9064.74
8917.98
8771.23
8624.49
8477.77
8331.06
8184.36
8037.68
7891.02
7744.37
7597.73
7451.11
7304.5
7157.91
7011.34
6864.77
6718.22
6571.69
6425.16
6278.65
6132.15
5985.67
5839.2
5692.73
5546.28
5399.83
5253.38
5106.94
4960.49
4814.04
4667.6
4521.14
4374.67
4228.19
4081.68
3935.15
3788.59
3641.99
3495.35
3348.66
3201.91
3055.1
2908.22
2761.27
2614.24
2467.13
2319.92
2172.63
2025.24
1877.76
1730.18
1582.5
1434.73
1286.86
1138.87
990.779
842.559
694.192
545.732
396.845
248.369
98.3991
11.7881
-0.260856
-0.449109
-0.635335
-0.821465
-1.00716
-1.19249
-1.37753
-1.56237
-1.74707
14650
14502.9
14355.7
14208.6
14061.5
13914.4
13767.3
13620.2
13473.1
13326
13178.9
13031.9
12884.8
12737.8
12590.8
12443.8
12296.7
12149.7
12002.7
11855.8
11708.8
11561.8
11414.9
11267.9
11121
10974.1
10827.2
10680.3
10533.4
10386.5
10239.6
10092.8
9945.95
9799.12
9652.3
9505.5
9358.71
9211.93
9065.17
8918.42
8771.68
8624.96
8478.25
8331.56
8184.88
8038.22
7891.57
7744.94
7598.33
7451.73
7305.15
7158.58
7012.03
6865.49
6718.97
6572.46
6425.97
6279.5
6133.04
5986.59
5840.15
5693.73
5547.32
5400.91
5254.52
5108.13
4961.73
4815.33
4668.94
4522.54
4376.13
4229.71
4083.26
3936.8
3790.3
3643.76
3497.18
3350.56
3203.87
3057.11
2910.29
2763.39
2616.4
2469.32
2322.15
2174.88
2027.51
1880.05
1732.48
1584.82
1437.05
1289.19
1141.23
993.156
844.963
696.623
548.201
399.325
250.857
100.893
12.9658
-0.26213
-0.450763
-0.636944
-0.823025
-1.00858
-1.19368
-1.37843
-1.56292
-1.74727
14650.2
14503.1
14355.9
14208.8
14061.7
13914.6
13767.5
13620.4
13473.3
13326.2
13179.2
13032.1
12885.1
12738
12591
12444
12297
12150
12003
11856
11709.1
11562.1
11415.2
11268.2
11121.3
10974.4
10827.5
10680.6
10533.7
10386.8
10240
10093.1
9946.3
9799.48
9652.67
9505.88
9359.1
9212.33
9065.58
8918.85
8772.12
8625.42
8478.72
8332.05
8185.39
8038.74
7892.11
7745.51
7598.92
7452.34
7305.78
7159.23
7012.71
6866.2
6719.7
6573.23
6426.77
6280.33
6133.9
5987.49
5841.1
5694.72
5548.35
5402
5255.65
5109.31
4962.96
4816.62
4670.28
4523.95
4377.6
4231.24
4084.87
3938.47
3792.04
3645.58
3499.07
3352.51
3205.89
3059.2
2912.43
2765.58
2618.64
2471.61
2324.47
2177.23
2029.88
1882.43
1734.87
1587.22
1439.47
1291.62
1143.68
995.646
847.497
699.206
550.847
402.02
253.592
103.688
14.2934
-0.264028
-0.452876
-0.63882
-0.824692
-1.00997
-1.19478
-1.37922
-1.56339
-1.74744
14650.4
14503.3
14356.1
14209
14061.9
13914.8
13767.7
13620.6
13473.5
13326.4
13179.4
13032.3
12885.3
12738.3
12591.2
12444.2
12297.2
12150.2
12003.2
11856.3
11709.3
11562.4
11415.4
11268.5
11121.6
10974.7
10827.8
10680.9
10534
10387.1
10240.3
10093.5
9946.63
9799.82
9653.02
9506.24
9359.47
9212.72
9065.98
8919.26
8772.55
8625.86
8479.18
8332.52
8185.88
8039.25
7892.64
7746.06
7599.48
7452.93
7306.39
7159.87
7013.37
6866.88
6720.42
6573.98
6427.55
6281.14
6134.76
5988.39
5842.03
5695.7
5549.38
5403.07
5256.77
5110.48
4964.19
4817.9
4671.63
4525.36
4379.08
4232.8
4086.5
3940.17
3793.82
3647.44
3501
3354.52
3207.98
3061.36
2914.66
2767.87
2620.98
2473.99
2326.89
2179.67
2032.34
1884.9
1737.36
1589.71
1441.97
1294.14
1146.23
998.237
850.149
701.934
553.675
404.942
256.594
106.821
15.7931
-0.266916
-0.456513
-0.642303
-0.828012
-1.01295
-1.19727
-1.38109
-1.56456
-1.74784
14650.6
14503.5
14356.3
14209.2
14062.1
13915
13767.9
13620.8
13473.7
13326.7
13179.6
13032.5
12885.5
12738.5
12591.5
12444.4
12297.4
12150.5
12003.5
11856.5
11709.5
11562.6
11415.7
11268.7
11121.8
10974.9
10828
10681.2
10534.3
10387.4
10240.6
10093.8
9946.95
9800.15
9653.37
9506.59
9359.84
9213.09
9066.37
8919.66
8772.96
8626.28
8479.62
8332.98
8186.35
8039.74
7893.15
7746.58
7600.03
7453.49
7306.98
7160.48
7014.01
6867.56
6721.12
6574.71
6428.32
6281.95
6135.59
5989.27
5842.95
5696.66
5550.38
5404.12
5257.88
5111.65
4965.41
4819.18
4672.98
4526.78
4380.58
4234.37
4088.15
3941.9
3795.64
3649.34
3502.99
3356.59
3210.13
3063.59
2916.97
2770.25
2623.42
2476.48
2329.42
2182.23
2034.91
1887.48
1739.93
1592.28
1444.55
1296.73
1148.85
1000.91
852.903
704.793
556.675
408.093
259.882
110.335
17.4928
-0.270316
-0.459606
-0.644871
-0.830128
-1.01458
-1.19864
-1.38203
-1.56507
-1.74797
14650.8
14503.7
14356.5
14209.4
14062.3
13915.2
13768.1
13621
13473.9
13326.8
13179.8
13032.7
12885.7
12738.7
12591.7
12444.7
12297.7
12150.7
12003.7
11856.7
11709.8
11562.8
11415.9
11269
11122.1
10975.2
10828.3
10681.4
10534.6
10387.7
10240.9
10094.1
9947.26
9800.47
9653.69
9506.93
9360.18
9213.45
9066.74
8920.04
8773.36
8626.69
8480.04
8333.41
8186.8
8040.22
7893.64
7747.09
7600.56
7454.04
7307.55
7161.08
7014.63
6868.21
6721.8
6575.42
6429.06
6282.72
6136.41
5990.12
5843.86
5697.61
5551.38
5405.17
5258.98
5112.81
4966.63
4820.46
4674.33
4528.2
4382.08
4235.95
4089.81
3943.66
3797.48
3651.28
3505.03
3358.73
3212.36
3065.91
2919.37
2772.73
2625.97
2479.08
2332.06
2184.9
2037.6
1890.16
1742.6
1594.94
1447.19
1299.38
1151.52
1003.64
855.728
707.753
559.827
411.469
263.47
114.267
19.4272
-0.276057
-0.466507
-0.65096
-0.835691
-1.01941
-1.20216
-1.38459
-1.5667
-1.74862
14651
14503.8
14356.7
14209.6
14062.5
13915.4
13768.3
13621.2
13474.1
13327
13180
13032.9
12885.9
12738.9
12591.9
12444.9
12297.9