/*--------------------------------*- C++ -*----------------------------------*\
| =========                 |                                                 |
| \\      /  F ield         | OpenFOAM: The Open Source CFD Toolbox           |
|  \\    /   O peration     | Version:  v2106                                 |
|   \\  /    A nd           | Website:  www.openfoam.com                      |
|    \\/     M anipulation  |                                                 |
\*---------------------------------------------------------------------------*/
FoamFile
{
    version     2.0;
    format      ascii;
    arch        "LSB;label=32;scalar=64";
    class       volScalarField;
    location    "0.4";
    object      p_rgh;
}
// * * * * * * * * * * * * * * * * * * * * * * * * * * * * * * * * * * * * * //

dimensions      [1 -1 -2 0 0 0 0];

internalField   nonuniform List<scalar> 
29678
(
0.172032
0.172249
0.172653
0.173172
0.173813
0.174607
0.17557
0.176703
0.178006
0.179478
0.181118
0.182927
0.184905
0.187053
0.189372
0.191863
0.194528
0.197367
0.200382
0.203574
0.206945
0.210494
0.214224
0.218134
0.222227
0.226502
0.230961
0.235605
0.240433
0.245448
0.250649
0.256038
0.261614
0.267379
0.273333
0.279474
0.285803
0.292318
0.299017
0.305897
0.312956
0.320188
0.327589
0.335154
0.342875
0.350744
0.358753
0.366891
0.375148
0.38351
0.391964
0.400493
0.409082
0.417711
0.426359
0.435005
0.443625
0.452194
0.460684
0.469068
0.477315
0.485392
0.493267
0.500902
0.50826
0.515301
0.521984
0.528263
0.534093
0.539427
0.544214
0.548404
0.551945
0.554783
0.556867
0.558144
0.558563
0.55807
0.556611
0.554138
0.550599
0.545948
0.540138
0.533126
0.524875
0.51535
0.504528
0.492398
0.478966
0.464269
0.448368
0.431282
0.412402
0.391387
0.368555
0.34387
0.317417
0.291013
0.280354
0.289886
0.189729
-0.0268841
-0.0631153
-0.025937
-0.0382246
-0.0180332
-0.0186778
-0.00803754
-0.00509355
-0.00106152
0.515478
0.515901
0.516713
0.517966
0.519765
0.52213
0.525029
0.52844
0.532353
0.536767
0.541683
0.547101
0.553025
0.559458
0.566403
0.573864
0.581845
0.590349
0.59938
0.608942
0.619039
0.629673
0.640848
0.652567
0.664833
0.677647
0.691014
0.704935
0.719413
0.734451
0.750051
0.766217
0.782949
0.800251
0.818121
0.836561
0.855567
0.875137
0.895266
0.915945
0.937166
0.958917
0.981184
1.00395
1.0272
1.0509
1.07504
1.09957
1.12448
1.14972
1.17525
1.20103
1.227
1.25311
1.27931
1.30552
1.33167
1.3577
1.38351
1.40904
1.43417
1.45883
1.4829
1.50628
1.52886
1.55051
1.5711
1.59051
1.60859
1.6252
1.64018
1.65338
1.66464
1.67379
1.68067
1.68513
1.68699
1.68609
1.68227
1.67536
1.66521
1.65166
1.63458
1.61381
1.58923
1.56074
1.52824
1.49168
1.45109
1.40659
1.3575
1.30297
1.24315
1.17837
1.10865
1.03359
0.952979
0.865143
0.796909
0.688974
0.592552
-0.0235482
-0.0568366
-0.0216192
-0.033499
-0.0148545
-0.0155831
-0.00658874
-0.00425213
-0.000799398
0.85839
0.859043
0.860329
0.862386
0.865395
0.869357
0.874204
0.879896
0.886421
0.893776
0.901965
0.910992
0.92086
0.931575
0.943144
0.955573
0.968868
0.983034
0.998079
1.01401
1.03083
1.04855
1.06716
1.08669
1.10712
1.12847
1.15074
1.17394
1.19807
1.22313
1.24912
1.27607
1.30395
1.33279
1.36258
1.39332
1.425
1.45763
1.49119
1.52567
1.56106
1.59734
1.63448
1.67245
1.71123
1.75078
1.79105
1.832
1.87358
1.91571
1.95834
2.00138
2.04477
2.08839
2.13216
2.17596
2.21969
2.26321
2.30639
2.34909
2.39116
2.43245
2.47277
2.51195
2.5498
2.58612
2.62069
2.65329
2.68369
2.71163
2.73687
2.75915
2.7782
2.79374
2.8055
2.81322
2.81661
2.81539
2.80929
2.79803
2.78136
2.75901
2.73073
2.69628
2.65545
2.60804
2.55388
2.49287
2.42502
2.34992
2.26624
2.17344
2.07275
1.96474
1.84912
1.72575
1.59569
1.45148
1.34038
1.11916
1.06842
-0.0213427
-0.0461954
-0.0201159
-0.0292322
-0.0150234
-0.0155288
-0.0081856
-0.00557227
-0.00135139
1.20047
1.20136
1.20314
1.206
1.21022
1.21578
1.22257
1.23054
1.23967
1.24996
1.26142
1.27405
1.28786
1.30285
1.31904
1.33643
1.35503
1.37485
1.39591
1.4182
1.44173
1.46652
1.49258
1.5199
1.5485
1.57838
1.60955
1.64201
1.67578
1.71086
1.74725
1.78497
1.82401
1.86439
1.9061
1.94915
1.99352
2.03921
2.08622
2.13452
2.18409
2.23491
2.28695
2.34016
2.39451
2.44994
2.5064
2.56381
2.6221
2.68119
2.74098
2.80137
2.86224
2.92347
2.98491
3.04642
3.10784
3.16898
3.22967
3.2897
3.34887
3.40696
3.46371
3.51889
3.57222
3.62341
3.67218
3.7182
3.76115
3.80067
3.83643
3.86804
3.89515
3.91734
3.93425
3.94551
3.9507
3.94944
3.94133
3.926
3.90306
3.87215
3.8329
3.78499
3.72808
3.66188
3.58613
3.50063
3.40521
3.29844
3.1796
3.04971
2.90934
2.7585
2.59709
2.42507
2.2442
2.04199
1.88715
1.55489
1.51613
-0.0175779
-0.036925
-0.0167257
-0.024159
-0.0125977
-0.0129982
-0.0069124
-0.00474748
-0.00108552
1.5414
1.54254
1.54481
1.54848
1.5539
1.56105
1.56978
1.58002
1.59176
1.60498
1.6197
1.63593
1.65366
1.67293
1.69372
1.71607
1.73997
1.76544
1.79248
1.82112
1.85137
1.88322
1.9167
1.95181
1.98856
2.02696
2.06702
2.10875
2.15216
2.19725
2.24403
2.29253
2.34273
2.39465
2.44829
2.50365
2.56072
2.6195
2.67996
2.7421
2.80589
2.87128
2.93825
3.00675
3.07671
3.14808
3.22078
3.29472
3.36981
3.44594
3.523
3.60084
3.67932
3.75828
3.83754
3.91691
3.99619
4.07514
4.15354
4.23113
4.30763
4.38276
4.45621
4.52766
4.59675
4.66313
4.72641
4.78617
4.84201
4.89347
4.9401
4.98142
5.01695
5.04619
5.06865
5.08384
5.09123
5.09032
5.08061
5.06158
5.03275
4.99364
4.94377
4.88269
4.80997
4.72522
4.62805
4.51816
4.39478
4.25639
4.10322
3.93663
3.75655
3.56284
3.35548
3.1345
2.90212
2.64197
2.4431
2.00961
1.97515
-0.0146155
-0.0290637
-0.0143664
-0.0200558
-0.0113242
-0.011481
-0.00654047
-0.00446755
-0.00111791
1.88087
1.88226
1.88502
1.88951
1.89612
1.90485
1.91551
1.92802
1.94235
1.9585
1.97647
1.99628
2.01794
2.04146
2.06686
2.09414
2.12333
2.15443
2.18747
2.22244
2.25938
2.29828
2.33917
2.38205
2.42695
2.47385
2.5228
2.57378
2.62681
2.68192
2.73909
2.79836
2.85972
2.92319
2.98877
3.05645
3.12623
3.19811
3.27206
3.34807
3.4261
3.50611
3.58806
3.67189
3.75752
3.8449
3.93392
4.02448
4.11647
4.20976
4.3042
4.39963
4.49587
4.59273
4.69
4.78743
4.88479
4.98179
5.07815
5.17357
5.26769
5.36019
5.45067
5.53874
5.62397
5.70592
5.78411
5.85805
5.92721
5.99105
6.04902
6.10052
6.14498
6.18176
6.21027
6.22991
6.24002
6.23998
6.22916
6.20694
6.17271
6.12586
6.06581
5.99198
5.90383
5.80085
5.68256
5.54848
5.39696
5.22725
5.04048
4.83732
4.61749
4.38081
4.12729
3.85704
3.57269
3.25439
3.01038
2.47998
2.44365
-0.0115227
-0.022685
-0.0117042
-0.0161273
-0.00938958
-0.00946513
-0.00551968
-0.00379336
-0.000962942
2.21856
2.22019
2.22345
2.22874
2.23655
2.24685
2.25944
2.27421
2.29112
2.31018
2.3314
2.35479
2.38036
2.40812
2.43811
2.47032
2.50477
2.5415
2.5805
2.62179
2.6654
2.71134
2.75963
2.81027
2.86328
2.91869
2.9765
3.03672
3.09938
3.16448
3.23205
3.30209
3.37461
3.44963
3.52715
3.60717
3.68968
3.77468
3.86215
3.95205
4.04436
4.13904
4.23602
4.33524
4.43663
4.54009
4.64552
4.75281
4.86182
4.9724
5.08437
5.19756
5.31175
5.42672
5.54221
5.65796
5.77366
5.889
6.00364
6.11721
6.22933
6.33957
6.44749
6.55261
6.65444
6.75243
6.84604
6.93466
7.01768
7.09447
7.16434
7.22662
7.2806
7.32554
7.36072
7.38545
7.3989
7.40036
7.38907
7.36428
7.32524
7.27124
7.20155
7.1155
7.0124
6.89165
6.75269
6.59428
6.41479
6.21445
5.99456
5.75498
5.49538
5.21561
4.91568
4.59577
4.25889
3.88178
3.59188
2.96436
2.92305
-0.00879162
-0.0173967
-0.00934506
-0.012773
-0.00764032
-0.00773867
-0.00458926
-0.00317672
-0.000826009
2.55414
2.55602
2.55977
2.56588
2.57487
2.58674
2.60125
2.61826
2.63775
2.65971
2.68416
2.71111
2.74057
2.77257
2.80712
2.84424
2.88395
2.92627
2.97122
3.01882
3.06909
3.12204
3.1777
3.23608
3.2972
3.36108
3.42774
3.49719
3.56946
3.64456
3.7225
3.80331
3.887
3.97358
4.06305
4.15542
4.25068
4.34883
4.44983
4.55367
4.66031
4.7697
4.88178
4.99647
5.11369
5.23334
5.3553
5.47944
5.6056
5.73363
5.86332
5.99445
6.12681
6.26012
6.3941
6.52844
6.6628
6.79682
6.93011
7.06224
7.19277
7.32121
7.44704
7.56973
7.68868
7.80329
7.9129
8.01682
8.11435
8.20473
8.2872
8.36096
8.42518
8.47902
8.5216
8.55217
8.56972
8.57343
8.56242
8.53579
8.49267
8.43222
8.35357
8.25592
8.13848
8.00052
7.84111
7.65839
7.45151
7.22152
6.96881
6.69293
6.39357
6.07057
5.72394
5.35388
4.96381
4.52697
4.19024
3.46469
3.417
-0.00658629
-0.0129559
-0.00701174
-0.00993153
-0.00582263
-0.00622402
-0.00356295
-0.00261694
-0.000637814
2.8873
2.88943
2.89368
2.90058
2.91076
2.92418
2.9406
2.95985
2.9819
3.00675
3.03441
3.0649
3.09825
3.13446
3.17356
3.21557
3.26052
3.30841
3.35929
3.41317
3.47007
3.53001
3.59302
3.65912
3.72832
3.80066
3.87615
3.95482
4.03668
4.12176
4.21008
4.30165
4.3965
4.49464
4.59607
4.70081
4.80884
4.92015
5.03474
5.15256
5.27357
5.39773
5.52497
5.65521
5.78836
5.9243
6.06291
6.20404
6.34753
6.49318
6.64078
6.79009
6.94086
7.09279
7.24556
7.39882
7.5522
7.70528
7.85764
8.00878
8.15821
8.30537
8.44968
8.59052
8.72722
8.85909
8.98539
9.10533
9.2181
9.32286
9.41872
9.50477
9.58007
9.64367
9.69454
9.73177
9.75431
9.76117
9.7513
9.7237
9.67735
9.61125
9.52444
9.41596
9.28489
9.13032
8.95051
8.74389
8.51081
8.25189
7.96666
7.65466
7.31555
6.94916
6.55549
6.13475
5.69077
5.19303
4.80843
3.9837
3.92754
-0.00465584
-0.0089611
-0.00520356
-0.00708985
-0.00448659
-0.00453199
-0.00281373
-0.00190756
-0.000537405
3.21773
3.2201
3.22483
3.23253
3.24389
3.25886
3.27717
3.29865
3.32324
3.35097
3.38183
3.41585
3.45305
3.49346
3.53709
3.58396
3.63412
3.68757
3.74435
3.80447
3.86798
3.93488
4.00522
4.07901
4.15627
4.23704
4.32134
4.4092
4.50064
4.59569
4.69437
4.79671
4.90272
5.01242
5.12582
5.24293
5.36375
5.48827
5.61646
5.7483
5.88375
6.02274
6.16522
6.3111
6.46028
6.61264
6.76804
6.92632
7.0873
7.25077
7.41651
7.58425
7.7537
7.92455
8.09644
8.26899
8.44179
8.61438
8.78628
8.95695
9.12582
9.2923
9.45571
9.61537
9.77053
9.9204
10.0642
10.2009
10.3298
10.4498
10.56
10.6593
10.7466
10.8209
10.8811
10.926
10.9545
10.9655
10.9578
10.9302
10.8816
10.8109
10.7168
10.5984
10.4545
10.2836
10.0838
9.85459
9.59654
9.3091
8.99168
8.64375
8.26494
7.85502
7.41394
6.94195
6.44326
5.88325
5.44972
4.52438
4.45717
-0.00281495
-0.00548773
-0.00359476
-0.00455149
-0.00326625
-0.00301042
-0.00207523
-0.00130837
-0.00041045
3.54509
3.54771
3.55293
3.56142
3.57394
3.59046
3.61065
3.63433
3.66146
3.69204
3.72609
3.76362
3.80465
3.84923
3.89736
3.94908
4.00441
4.06339
4.12603
4.19238
4.26246
4.3363
4.41393
4.49538
4.58067
4.66985
4.76294
4.85996
4.96096
5.06596
5.17499
5.28807
5.40524
5.5265
5.65188
5.78138
5.91501
6.05275
6.19459
6.3405
6.49043
6.64434
6.80214
6.96375
7.12907
7.29797
7.47031
7.64591
7.82458
8.0061
8.19021
8.37665
8.56509
8.75519
8.94658
9.13884
9.3315
9.52408
9.71604
9.90681
10.0957
10.2822
10.4654
10.6446
10.819
10.9877
11.1499
11.3044
11.4503
11.5866
11.7121
11.8256
11.9261
12.0122
12.0828
12.1366
12.1723
12.1885
12.1841
12.1577
12.1079
12.0335
11.9333
11.806
11.65
11.4632
11.2448
10.9946
10.7122
10.3968
10.0475
9.66394
9.2455
8.79193
8.3031
7.77924
7.22503
6.60116
6.11766
5.0899
5.00885
-0.00095573
-0.00257624
-0.00201826
-0.00242831
-0.00201491
-0.00177074
-0.00130341
-0.000811905
-0.00026618
3.86909
3.87195
3.87765
3.88693
3.90061
3.91865
3.94071
3.96659
3.99624
4.02965
4.06685
4.10787
4.15272
4.20143
4.25404
4.31056
4.37105
4.43552
4.504
4.57654
4.65316
4.7339
4.81878
4.90786
5.00115
5.0987
5.20054
5.30671
5.41724
5.53216
5.65152
5.77534
5.90366
6.03648
6.17384
6.31574
6.4622
6.61319
6.76871
6.92873
7.09321
7.26209
7.4353
7.61275
7.79434
7.97992
8.16936
8.36246
8.55903
8.75882
8.96158
9.16701
9.37477
9.5845
9.79578
10.0082
10.2212
10.4343
10.6469
10.8584
11.0681
11.2752
11.479
11.6786
11.8731
12.0616
12.243
12.4163
12.5804
12.734
12.876
13.005
13.1198
13.2191
13.3013
13.3651
13.4093
13.4322
13.4323
13.4083
13.3586
13.2818
13.1767
13.0414
12.8738
12.6728
12.4376
12.1674
11.8614
11.5186
11.138
10.7191
10.2612
9.76389
9.227
8.65066
8.0401
7.35065
6.81615
5.68375
5.58607
0.000928625
-0.000189164
-0.000391274
-0.000719572
-0.000753953
-0.000722394
-0.000574547
-0.000369255
-0.000124722
4.1894
4.1925
4.19868
4.20874
4.22357
4.24313
4.26704
4.2951
4.32724
4.36347
4.4038
4.44827
4.49691
4.54973
4.60678
4.66809
4.73369
4.80361
4.8779
4.95658
5.0397
5.1273
5.21941
5.31607
5.41732
5.52321
5.63377
5.74904
5.86908
5.99391
6.12357
6.25811
6.39756
6.54194
6.69128
6.84559
7.00488
7.16915
7.33839
7.51257
7.69165
7.87558
8.06429
8.25769
8.45566
8.65807
8.86477
9.07557
9.29026
9.50858
9.73027
9.955
10.1824
10.4122
10.6438
10.8768
11.1107
11.3449
11.5788
11.8117
12.0428
12.2714
12.4966
12.7175
12.9332
13.1424
13.3442
13.5374
13.7208
13.893
14.0527
14.1986
14.3291
14.4428
14.5381
14.6134
14.6676
14.6984
14.7045
14.6843
14.6361
14.5586
14.4497
14.3074
14.13
13.9165
13.6658
13.3766
13.0477
12.6782
12.267
11.8132
11.3161
10.7751
10.1899
9.56054
8.89283
8.13595
7.54944
6.30991
6.19282
0.00278207
0.00179239
0.00121237
0.000734694
0.000420792
0.00021048
9.13108e-05
3.15932e-05
7.21543e-06
4.50572
4.50906
4.51571
4.52654
4.54251
4.56357
4.58932
4.61954
4.65415
4.69317
4.73661
4.78451
4.8369
4.8938
4.95526
5.02131
5.09198
5.16732
5.24737
5.33216
5.42174
5.51615
5.61543
5.71964
5.82881
5.94299
6.06223
6.18657
6.31608
6.45078
6.59073
6.73596
6.88652
7.04245
7.20376
7.37048
7.54262
7.72019
7.90318
8.09156
8.28531
8.48436
8.68866
8.8981
9.11259
9.33199
9.55613
9.78483
10.0179
10.255
10.4959
10.7403
10.9878
11.2379
11.4903
11.7445
11.9998
12.2557
12.5116
12.7666
13.02
13.2709
13.5185
13.7617
13.9994
14.2306
14.454
14.6683
14.8722
15.0644
15.2433
15.4074
15.5551
15.6848
15.7947
15.8832
15.9486
15.9891
16.0029
15.9882
15.9433
15.8664
15.7551
15.6076
15.4224
15.1979
14.9327
14.6255
14.2749
13.8797
13.4386
12.9505
12.4146
11.8301
11.1964
10.5135
9.78798
8.96174
8.32224
6.97292
6.83347
0.00456049
0.00350336
0.00269875
0.002029
0.00148801
0.00105019
0.000694006
0.000394294
0.000127854
4.81773
4.82131
4.82843
4.84002
4.85712
4.87967
4.90724
4.93959
4.97666
5.01844
5.06496
5.11626
5.17237
5.23331
5.29914
5.36988
5.44559
5.5263
5.61206
5.70291
5.7989
5.90007
6.00649
6.11819
6.23522
6.35765
6.48553
6.6189
6.75783
6.90237
7.05256
7.20847
7.37012
7.53757
7.71084
7.88997
8.07497
8.26586
8.46262
8.66525
8.87371
9.08796
9.30793
9.53354
9.76468
10.0012
10.243
10.4898
10.7414
10.9976
11.258
11.5224
11.7903
12.0614
12.3351
12.6109
12.8883
13.1666
13.4451
13.723
13.9995
14.2737
14.5446
14.8111
15.0721
15.3263
15.5726
15.8094
16.0354
16.2489
16.4485
16.6325
16.799
16.9463
17.0727
17.176
17.2546
17.3064
17.3298
17.3227
17.283
17.2083
17.0966
16.9457
16.7541
16.52
16.2418
15.9179
15.5468
15.1269
14.6568
14.1353
13.5612
12.9335
12.2514
11.5147
10.7307
9.8332
9.13974
7.67791
7.51284
0.00624135
0.00502414
0.00404841
0.00319301
0.00245102
0.00180604
0.00123686
0.000721029
0.00023696
5.12514
5.12895
5.13654
5.14888
5.16709
5.19112
5.22049
5.25496
5.29444
5.33896
5.38853
5.44319
5.50298
5.56793
5.63808
5.71348
5.79417
5.8802
5.97162
6.06848
6.17082
6.27871
6.3922
6.51134
6.63619
6.76682
6.90328
7.04563
7.19394
7.34826
7.50867
7.6752
7.84791
8.02686
8.21208
8.40361
8.60147
8.80568
9.01624
9.23315
9.45638
9.68589
9.92163
10.1635
10.4114
10.6652
10.9248
11.1899
11.4604
11.7359
12.0162
12.301
12.5898
12.8821
13.1776
13.4757
13.7758
14.0771
14.379
14.6807
14.9812
15.2796
15.5749
15.8659
16.1513
16.43
16.7005
16.9612
17.2107
17.4473
17.6693
17.8748
18.062
18.2288
18.3734
18.4935
18.5872
18.6529
18.6882
18.6906
18.6578
18.5873
18.4768
18.3244
18.1281
17.8861
17.5964
17.2574
16.8671
16.424
15.9262
15.3723
14.7608
14.0904
13.3602
12.5695
11.7267
10.756
10.0077
8.43061
8.23624
0.00780995
0.00639697
0.00526879
0.00424053
0.00331627
0.00248362
0.00172293
0.00101339
0.00033469
5.42764
5.43168
5.43972
5.45282
5.47213
5.49761
5.52876
5.56532
5.6072
5.65442
5.70701
5.76499
5.82842
5.89733
5.97176
6.05176
6.13739
6.22869
6.32571
6.42852
6.53716
6.6517
6.7722
6.89872
7.03133
7.17009
7.31507
7.46635
7.62398
7.78805
7.95861
8.13573
8.31947
8.50988
8.70702
8.91093
9.12164
9.33918
9.56355
9.79477
10.0328
10.2777
10.5292
10.7875
11.0523
11.3236
11.6011
11.8848
12.1743
12.4695
12.77
13.0755
13.3855
13.6997
14.0176
14.3385
14.6619
14.987
15.3131
15.6394
15.9649
16.2886
16.6093
16.926
17.2373
17.5417
17.8379
18.1242
18.3989
18.6603
18.9064
19.1354
19.3451
19.5335
19.6983
19.8377
19.9495
20.0313
20.0805
20.0945
20.0703
20.0058
19.8986
19.7465
19.5475
19.2994
19.0002
18.6477
18.24
17.7751
17.2511
16.6661
16.0183
15.3063
14.5284
13.6837
12.7821
11.7365
10.9323
9.23748
9.00966
0.00918383
0.00763558
0.00636601
0.00517921
0.0040888
0.00308647
0.00215426
0.00127237
0.000421194
5.72493
5.7292
5.7377
5.75153
5.77193
5.79884
5.83175
5.87037
5.91462
5.96451
6.02007
6.08134
6.14836
6.22118
6.29984
6.3844
6.4749
6.57141
6.67398
6.78267
6.89755
7.01867
7.14612
7.27995
7.42025
7.56708
7.72052
7.88065
8.04755
8.22129
8.40195
8.58961
8.78432
8.98616
9.19519
9.41145
9.63499
9.86585
10.1041
10.3496
10.6025
10.8627
11.1302
11.4049
11.6868
11.9756
12.2714
12.5738
12.8827
13.1978
13.5188
13.8454
14.1771
14.5136
14.8544
15.1987
15.5461
15.8958
16.247
16.5988
16.9503
17.3003
17.6478
17.9914
18.3298
18.6616
18.985
19.2985
19.6002
19.8882
20.1605
20.415
20.6494
20.8618
21.05
21.2115
21.3436
21.4435
21.5087
21.5358
21.5225
21.4662
21.3646
21.2151
21.0155
20.7634
20.4566
20.0927
19.6695
19.1847
18.6362
18.0217
17.3392
16.5867
15.7621
14.8639
13.9037
12.7817
11.9208
10.1059
9.83983
0.0105186
0.00876669
0.00735691
0.00601673
0.00477223
0.00361639
0.00253162
0.00149818
0.000496435
6.01673
6.02121
6.03016
6.04472
6.06619
6.09452
6.12916
6.16981
6.2164
6.26892
6.32742
6.39193
6.46249
6.53917
6.62201
6.71105
6.80637
6.90803
7.01608
7.13059
7.25163
7.37927
7.51359
7.65466
7.80257
7.9574
8.11922
8.28814
8.46423
8.64758
8.83828
9.0364
9.24203
9.45525
9.67611
9.90469
10.141
10.3852
10.6372
10.8971
11.1649
11.4405
11.724
12.0153
12.3143
12.6209
12.935
13.2563
13.5848
13.9201
14.262
14.6101
14.964
15.3233
15.6875
16.0559
16.428
16.8031
17.1802
17.5585
17.937
18.3145
18.6899
19.0619
19.4289
19.7895
20.142
20.4844
20.815
21.1317
21.4322
21.7147
21.9769
22.2164
22.4306
22.6164
22.7707
22.8905
22.9739
23.0167
23.0167
22.9713
22.8776
22.7331
22.5353
22.2815
21.9693
21.5962
21.1597
20.6573
20.0864
19.4445
18.7291
17.9377
17.0677
16.117
15.0989
13.8994
12.9812
11.0444
10.7346
0.0117383
0.00978348
0.00823782
0.00675175
0.00536549
0.00407225
0.00285392
0.00169005
0.000560095
6.30273
6.30743
6.31682
6.33209
6.35462
6.38435
6.42069
6.46335
6.51223
6.56735
6.62874
6.69644
6.7705
6.85098
6.93793
7.03141
7.13148
7.23821
7.35166
7.47192
7.59905
7.73313
7.87424
8.02247
8.17791
8.34065
8.51078
8.68839
8.87359
9.06648
9.26713
9.47566
9.69214
9.91666
10.1493
10.3902
10.6393
10.8967
11.1625
11.4368
11.7194
12.0105
12.3101
12.618
12.9342
13.2587
13.5912
13.9318
14.2801
14.6359
14.9989
15.3689
15.7454
16.128
16.5162
16.9094
17.307
17.7081
18.1121
18.5178
18.9244
19.3307
19.7354
20.1371
20.5343
20.9254
21.3087
21.6821
22.0436
22.3912
22.723
23.0366
23.3294
23.5985
23.8405
24.0525
24.2314
24.3741
24.4778
24.5394
24.5556
24.5237
24.4407
24.3038
24.1102
23.8572
23.5422
23.1623
22.7149
22.1973
21.6065
20.9396
20.1936
19.3655
18.4521
17.4502
16.3757
15.0982
14.1223
12.0624
11.7027
0.0128392
0.0106796
0.00900281
0.00737921
0.0058641
0.00445023
0.00311825
0.00184616
0.000611534
6.58266
6.58758
6.59739
6.61337
6.63694
6.66803
6.70606
6.75069
6.80183
6.8595
6.92373
6.99457
7.07207
7.1563
7.2473
7.34514
7.44989
7.56162
7.6804
7.80632
7.93945
8.07988
8.2277
8.383
8.54588
8.71644
8.89478
9.08101
9.27523
9.47755
9.68808
9.90692
10.1342
10.3699
10.6143
10.8673
11.1292
11.3998
11.6794
11.968
12.2656
12.5721
12.8877
13.2123
13.5459
13.8884
14.2396
14.5995
14.9678
15.3444
15.729
16.1212
16.5207
16.9271
17.3399
17.7585
18.1822
18.6104
19.042
19.4763
19.9121
20.3484
20.7837
21.2166
21.6457
22.0691
22.485
22.8914
23.2865
23.6684
24.0344
24.3817
24.7071
25.0075
25.2799
25.5209
25.7273
25.8959
26.0232
26.1064
26.1417
26.1262
26.0567
25.9301
25.7435
25.494
25.1788
24.7948
24.3393
23.8091
23.2012
22.5122
21.7385
20.8766
19.9223
18.8715
17.7428
16.3875
15.354
13.1711
12.7544
0.0138173
0.0114451
0.00964264
0.00789024
0.0062601
0.00474374
0.00331971
0.00196353
0.00064971
6.85622
6.86136
6.8716
6.88827
6.91285
6.9453
6.98497
7.03153
7.0849
7.14507
7.21209
7.28602
7.3669
7.45481
7.54979
7.65192
7.76128
7.87793
8.00196
8.13345
8.2725
8.41919
8.57362
8.73589
8.90611
9.08439
9.27084
9.46557
9.66871
9.88037
10.1007
10.3297
10.5676
10.8146
11.0705
11.3357
11.6102
11.8941
12.1874
12.4902
12.8027
13.1247
13.4564
13.7978
14.1487
14.5093
14.8793
15.2587
15.6473
16.0449
16.4513
16.8662
17.2892
17.7199
18.1578
18.6024
19.053
19.509
19.9693
20.4331
20.8993
21.3668
21.8342
22.3
22.7625
23.2201
23.6709
24.1133
24.5452
24.9637
25.366
25.7489
26.1092
26.4439
26.7496
27.0229
27.2601
27.4578
27.6122
27.7199
27.7776
27.7816
27.7286
27.6153
27.4386
27.1954
26.8827
26.4975
26.0368
25.4972
24.8754
24.1675
23.3697
22.4774
21.4858
20.3893
19.2097
17.7779
16.6876
14.3833
13.9016
0.0146602
0.0120639
0.0101426
0.00827108
0.00654145
0.00494294
0.00345105
0.00203766
0.000673052
7.12316
7.1285
7.13916
7.1565
7.18209
7.21586
7.25715
7.3056
7.36114
7.42377
7.49354
7.57049
7.65469
7.74621
7.8451
7.95145
8.06532
8.18681
8.316
8.45298
8.59784
8.75068
8.91162
9.08076
9.25821
9.4441
9.63855
9.84168
10.0536
10.2745
10.5045
10.7436
10.9921
11.2501
11.5176
11.7948
12.0818
12.3788
12.6858
13.0029
13.3301
13.6677
14.0155
14.3736
14.742
15.1207
15.5096
15.9087
16.3177
16.7366
17.1651
17.603
18.0498
18.5053
18.969
19.4402
19.9185
20.403
20.893
21.3874
21.8852
22.3853
22.8862
23.3864
23.8843
24.3783
24.8671
25.3482
25.8189
26.2759
26.7166
27.1378
27.5363
27.9085
28.251
28.5599
28.8315
29.0618
29.2468
29.3826
29.466
29.4928
29.4595
29.3625
29.1987
28.9648
28.6577
28.2742
27.8114
27.2656
26.6335
25.9107
25.0928
24.1747
23.1503
22.0123
20.7865
19.2811
18.1357
15.7136
15.158
0.0153476
0.012513
0.0104815
0.00850221
0.00669124
0.00503417
0.00350219
0.0020623
0.000679338
7.38319
7.38873
7.3998
7.41781
7.44438
7.47943
7.52231
7.57262
7.63029
7.69533
7.76778
7.8477
7.93515
8.0302
8.13293
8.2434
8.36171
8.48795
8.62219
8.76455
8.91512
9.07402
9.24135
9.41724
9.60181
9.79518
9.9975
10.2089
10.4295
10.6595
10.899
11.1481
11.4071
11.6759
11.9549
12.244
12.5435
12.8535
13.1741
13.5053
13.8474
14.2003
14.5642
14.9391
15.325
15.7219
16.1298
16.5487
16.9783
17.4187
17.8696
18.3307
18.8018
19.2825
19.7724
20.271
20.7776
21.2916
21.8121
22.3382
22.8688
23.4028
23.9387
24.4751
25.0108
25.5443
26.0732
26.5947
27.1059
27.6041
28.0861
28.5489
28.9888
29.4021
29.785
30.1334
30.4431
30.7098
30.9293
31.0972
31.2096
31.2628
31.2526
31.1752
31.0274
30.8057
30.5071
30.1285
29.6667
29.1184
28.4797
27.7464
26.9133
25.9747
24.9231
23.7494
22.4839
20.9098
19.7124
17.179
16.5396
0.0158503
0.0127608
0.0106305
0.00855776
0.00668737
0.00499965
0.00346001
0.00202936
0.000665762
7.63605
7.6418
7.65326
7.67192
7.69944
7.73576
7.78018
7.83231
7.89206
7.95945
8.03453
8.11734
8.20797
8.30649
8.41296
8.52748
8.65014
8.78102
8.92022
9.06785
9.22402
9.38885
9.56245
9.74497
9.93652
10.1373
10.3473
10.5669
10.796
11.035
11.2838
11.5428
11.8121
12.0917
12.3819
12.6829
12.9947
13.3176
13.6516
13.9969
14.3537
14.722
15.1019
15.4935
15.8969
16.3121
16.7391
17.1778
17.6282
18.0902
18.5637
19.0484
19.5441
20.0505
20.5671
21.0936
21.6293
22.1735
22.7255
23.2843
23.849
24.4182
24.9908
25.5658
26.1419
26.7166
27.2871
27.851
28.4056
28.9478
29.4746
29.9822
30.4672
30.9254
31.3527
31.7446
32.0965
32.4039
32.6619
32.866
33.0115
33.0947
33.1111
33.0567
32.928
32.7216
32.4345
32.0637
31.6062
31.0587
30.4177
29.6786
28.8359
27.8832
26.8118
25.61
24.3134
22.6778
21.4334
18.7989
18.0649
0.0161288
0.0127656
0.0105528
0.00840489
0.006502
0.00481715
0.00330826
0.00192887
0.000628777
7.88149
7.88742
7.89928
7.91857
7.94702
7.98458
8.0305
8.08441
8.14619
8.21587
8.29351
8.37916
8.47289
8.57478
8.68492
8.80339
8.93029
9.06571
9.20976
9.36255
9.5242
9.69483
9.87458
10.0636
10.262
10.4699
10.6876
10.9151
11.1527
11.4004
11.6585
11.9272
12.2066
12.4969
12.7982
13.1108
13.4348
13.7705
14.1178
14.4771
14.8485
15.232
15.6279
16.0362
16.457
16.8904
17.3365
17.7951
18.2664
18.7502
19.2465
19.7551
20.2757
20.8081
21.352
21.9069
22.4723
23.0476
23.632
24.2246
24.8244
25.4305
26.0421
26.658
27.2758
27.8931
28.5074
29.1164
29.7172
30.3066
30.8814
31.4377
31.9717
32.4789
32.9548
33.3947
33.7934
34.1459
34.447
34.6917
34.8747
34.9917
35.0385
35.0106
34.9041
34.7159
34.4431
34.0828
33.6326
33.0896
32.4504
31.7106
30.8647
29.9055
28.8231
27.6029
26.2863
24.6001
23.3161
20.5955
19.7556
0.016133
0.0124749
0.0102024
0.00800313
0.00610124
0.00445995
0.00302763
0.00174907
0.000564192
8.11924
8.12537
8.1376
8.1575
8.18687
8.22562
8.27301
8.32864
8.39241
8.46432
8.54445
8.63286
8.72961
8.8348
8.94851
9.07083
9.20187
9.34172
9.4905
9.64832
9.81532
9.99163
10.1774
10.3727
10.5778
10.7928
11.0179
11.2533
11.499
11.7554
12.0226
12.3008
12.5902
12.8909
13.2032
13.5273
13.8633
14.2116
14.5721
14.9452
15.331
15.7297
16.1414
16.5663
17.0045
17.4561
17.9212
18.3998
18.892
19.3977
19.9169
20.4495
20.9954
21.5542
22.1258
22.7097
23.3055
23.9125
24.5302
25.1576
25.7939
26.4389
27.0914
27.7493
28.4102
29.0722
29.7328
30.3896
31.0396
31.6796
32.3061
32.915
33.5021
34.0628
34.5921
35.0847
35.5352
35.9379
36.2871
36.5772
36.8024
36.9575
37.0386
37.0405
36.9594
36.7921
36.536
36.1887
35.7484
35.213
34.5796
33.8446
33.0023
32.0453
30.9626
29.7363
28.4141
26.6923
25.3795
22.5942
21.6368
0.0158012
0.0118244
0.00952295
0.00730338
0.00544439
0.00389597
0.00259502
0.00147602
0.000467027
8.34907
8.35538
8.36798
8.38848
8.41873
8.45864
8.50746
8.56477
8.63045
8.70454
8.78709
8.87818
8.97788
9.08627
9.20345
9.32952
9.46458
9.60874
9.76213
9.92486
10.0971
10.2789
10.4705
10.6721
10.8837
11.1056
11.3379
11.5809
11.8348
12.0996
12.3757
12.6632
12.9623
13.2733
13.5964
13.9318
14.2796
14.6403
15.0138
15.4005
15.8006
16.2143
16.6417
17.0831
17.5386
18.0083
18.4923
18.9909
19.504
20.0316
20.5739
21.1307
21.7019
22.2875
22.8871
23.5005
24.1272
24.7667
25.4184
26.0817
26.7564
27.442
28.1363
28.8373
29.5433
30.2522
30.9617
31.6693
32.3717
33.0657
33.7477
34.4134
35.0582
35.6772
36.2649
36.8157
37.3234
37.7819
38.1848
38.5256
38.7981
38.9964
39.1153
39.1508
39.098
38.954
38.7165
38.384
37.9554
37.4299
36.8059
36.0805
35.2491
34.3042
33.2341
32.0167
30.7075
28.9705
27.6444
24.8241
23.7385
0.0150507
0.0107349
0.00844686
0.00625402
0.00449669
0.00310487
0.00199963
0.00110312
0.000332918
8.57073
8.57722
8.59017
8.61125
8.64236
8.6834
8.73361
8.79253
8.86008
8.93628
9.02118
9.11487
9.21741
9.32892
9.44947
9.57917
9.71814
9.86649
10.0243
10.1918
10.3691
10.5563
10.7536
10.9612
11.1792
11.4078
11.6473
11.8977
12.1594
12.4325
12.7172
13.0138
13.3225
13.6436
13.9772
14.3237
14.6832
15.056
15.4423
15.8425
16.2567
16.6851
17.1281
17.5857
18.0583
18.546
19.0489
19.5673
20.1013
20.6509
21.2162
21.7973
22.3942
23.0066
23.6346
24.2778
24.9359
25.6085
26.2951
26.9958
27.7104
28.4372
29.1743
29.9202
30.6732
31.4313
32.1923
32.9535
33.7117
34.4635
35.205
35.9319
36.6393
37.3218
37.9736
38.5884
39.1595
39.6799
40.1425
40.5401
40.8656
41.1122
41.2737
41.3462
41.3244
41.2056
40.988
40.6709
40.2547
39.7402
39.1278
38.4165
37.6032
36.6812
35.6383
34.4484
33.1751
31.45
30.1324
27.3176
26.0952
0.0137759
0.00908111
0.00683724
0.00469345
0.00308067
0.0019137
0.00110007
0.000545644
0.000139732
8.78399
8.79065
8.80395
8.82559
8.85752
8.89966
8.9512
9.0117
9.08105
9.15928
9.24646
9.34266
9.44797
9.56248
9.68629
9.81952
9.96227
10.1147
10.2769
10.449
10.6312
10.8236
11.0264
11.2399
11.464
11.6992
11.9455
12.2032
12.4725
12.7536
13.0468
13.3523
13.6704
14.0012
14.3452
14.7024
15.0733
15.4581
15.857
16.2703
16.6984
17.1414
17.5996
18.0733
18.5628
19.0683
19.59
20.1281
20.6828
21.2543
21.8427
22.4481
23.0706
23.7102
24.3667
25.04
25.73
26.4362
27.1589
27.8983
28.6533
29.422
30.2032
30.9957
31.7977
32.6074
33.4224
34.2402
35.0575
35.8709
36.6764
37.4693
38.2444
38.9962
39.7181
40.4033
41.0445
41.6338
42.1631
42.6243
43.0092
43.31
43.5195
43.632
43.6439
43.5516
43.3539
43.0516
42.6466
42.1424
41.5421
40.8478
40.0588
39.1705
38.1716
37.0314
35.8226
34.1452
32.8667
30.112
28.7512
0.0118781
0.006968
0.00496136
0.00302667
0.00168542
0.000817478
0.000316665
7.52118e-05
-2.93544e-05
8.98863
8.99546
9.00909
9.03127
9.064
9.10719
9.16002
9.22203
9.29312
9.37332
9.46269
9.56132
9.66929
9.7867
9.91367
10.0503
10.1967
10.353
10.5194
10.696
10.8829
11.0804
11.2886
11.5077
11.7378
11.9793
12.2323
12.497
12.7737
13.0627
13.3641
13.6782
14.0053
14.3458
14.6997
15.0676
15.4496
15.846
16.2572
16.6834
17.125
17.5823
18.0556
18.5452
19.0513
19.5743
20.1145
20.6721
21.2474
21.8407
22.4521
23.0818
23.7299
24.3965
25.0817
25.7854
26.5075
27.2482
28.008
28.7866
29.5822
30.3939
31.2207
32.0613
32.9143
33.7777
34.6495
35.5269
36.4068
37.2858
38.1596
39.0235
39.872
40.6991
41.4979
42.2607
42.9796
43.6457
44.2497
44.7822
45.2337
45.5952
45.8583
46.0157
46.0628
45.9977
45.8189
45.5285
45.1312
44.6335
44.0428
43.3655
42.6053
41.7612
40.8242
39.7594
38.6504
37.0666
35.8689
33.2466
31.7529
0.00899022
0.00333069
0.00147815
-0.000292904
-0.00129211
-0.00167898
-0.00155768
-0.00109512
-0.000432764
9.18444
9.19143
9.20538
9.22808
9.26157
9.30578
9.35984
9.42331
9.49607
9.57816
9.66964
9.7706
9.88114
10.0013
10.1313
10.2712
10.4212
10.5813
10.7517
10.9326
11.1241
11.3264
11.5398
11.7643
12.0003
12.2478
12.5073
12.7788
13.0627
13.3592
13.6685
13.991
14.327
14.6767
15.0404
15.4185
15.8113
16.2191
16.6423
17.0811
17.536
18.0072
18.4952
19.0003
19.5228
20.0631
20.6215
21.1984
21.7941
22.4088
23.043
23.6968
24.3705
25.0642
25.7781
26.5123
27.2669
28.0428
28.8401
29.6578
30.4948
31.3505
32.2241
33.1144
34.02
34.9394
35.8704
36.8105
37.7565
38.7051
39.652
40.5922
41.52
42.4291
43.312
44.1606
44.9657
45.7174
46.4052
47.018
47.5448
47.9747
48.2976
48.5048
48.5901
48.5515
48.3887
48.105
47.7081
47.2091
46.6208
45.9564
45.226
44.4345
43.5779
42.6177
41.6503
40.218
39.1573
36.7596
35.1555
0.00559037
0.000237318
-0.0010902
-0.00240934
-0.00292376
-0.00304247
-0.00249536
-0.00159648
-0.000560921
9.3712
9.37834
9.3926
9.41579
9.45002
9.4952
9.55045
9.61532
9.68968
9.77358
9.86709
9.97029
10.0833
10.2062
10.3391
10.4821
10.6354
10.7991
10.9734
11.1584
11.3544
11.5614