/*--------------------------------*- C++ -*----------------------------------*\
| =========                 |                                                 |
| \\      /  F ield         | OpenFOAM: The Open Source CFD Toolbox           |
|  \\    /   O peration     | Version:  v2106                                 |
|   \\  /    A nd           | Website:  www.openfoam.com                      |
|    \\/     M anipulation  |                                                 |
\*---------------------------------------------------------------------------*/
FoamFile
{
    version     2.0;
    format      ascii;
    arch        "LSB;label=32;scalar=64";
    class       surfaceScalarField;
    location    "0.4";
    object      phi;
}
// * * * * * * * * * * * * * * * * * * * * * * * * * * * * * * * * * * * * * //

dimensions      [0 3 -1 0 0 0 0];

oriented        oriented;

internalField   nonuniform List<scalar> 
59425
(
-2.50635e-10
-3.38234e-07
-5.37186e-10
-3.39394e-07
-8.40853e-10
-3.40013e-07
-1.14565e-09
-3.40856e-07
-1.45013e-09
-3.42003e-07
-1.75408e-09
-3.43512e-07
-2.05711e-09
-3.45391e-07
-2.35948e-09
-3.47625e-07
-2.66185e-09
-3.50197e-07
-2.96487e-09
-3.531e-07
-3.26906e-09
-3.56335e-07
-3.57479e-09
-3.599e-07
-3.88232e-09
-3.63799e-07
-4.19183e-09
-3.68032e-07
-4.50347e-09
-3.72602e-07
-4.81735e-09
-3.77512e-07
-5.13358e-09
-3.82764e-07
-5.45222e-09
-3.8836e-07
-5.77331e-09
-3.94303e-07
-6.09686e-09
-4.00596e-07
-6.42287e-09
-4.07241e-07
-6.7513e-09
-4.14241e-07
-7.0821e-09
-4.21598e-07
-7.41516e-09
-4.29315e-07
-7.75036e-09
-4.37395e-07
-8.08751e-09
-4.45839e-07
-8.42639e-09
-4.5465e-07
-8.76675e-09
-4.63829e-07
-9.1083e-09
-4.73379e-07
-9.45065e-09
-4.833e-07
-9.79338e-09
-4.93593e-07
-1.01359e-08
-5.04259e-07
-1.04778e-08
-5.15297e-07
-1.08182e-08
-5.26707e-07
-1.11566e-08
-5.38487e-07
-1.14921e-08
-5.50636e-07
-1.18237e-08
-5.6315e-07
-1.21505e-08
-5.76024e-07
-1.24713e-08
-5.89255e-07
-1.27848e-08
-6.02836e-07
-1.30896e-08
-6.16758e-07
-1.33842e-08
-6.31014e-07
-1.3667e-08
-6.45592e-07
-1.39361e-08
-6.6048e-07
-1.41895e-08
-6.75663e-07
-1.4425e-08
-6.91126e-07
-1.46404e-08
-7.06849e-07
-1.4833e-08
-7.22812e-07
-1.50002e-08
-7.3899e-07
-1.5139e-08
-7.55357e-07
-1.52463e-08
-7.71884e-07
-1.53189e-08
-7.88538e-07
-1.53532e-08
-8.05281e-07
-1.53454e-08
-8.22075e-07
-1.52917e-08
-8.38876e-07
-1.51879e-08
-8.55635e-07
-1.50299e-08
-8.72301e-07
-1.48131e-08
-8.88816e-07
-1.45329e-08
-9.0512e-07
-1.41847e-08
-9.21146e-07
-1.37636e-08
-9.36824e-07
-1.32649e-08
-9.52077e-07
-1.26838e-08
-9.66825e-07
-1.20153e-08
-9.8098e-07
-1.12548e-08
-9.94453e-07
-1.03977e-08
-1.00715e-06
-9.43975e-09
-1.01896e-06
-8.37695e-09
-1.02978e-06
-7.20568e-09
-1.03951e-06
-5.92283e-09
-1.04803e-06
-4.52587e-09
-1.05521e-06
-3.01292e-09
-1.06095e-06
-1.38289e-09
-1.06511e-06
3.6408e-10
-1.06757e-06
2.22821e-09
-1.06821e-06
4.20654e-09
-1.06689e-06
6.29611e-09
-1.06349e-06
8.49249e-09
-1.05789e-06
1.07898e-08
-1.04997e-06
1.31808e-08
-1.03961e-06
1.56567e-08
-1.02672e-06
1.82069e-08
-1.01117e-06
2.08196e-08
-9.92897e-07
2.34811e-08
-9.71806e-07
2.61763e-08
-9.47835e-07
2.88881e-08
-9.20932e-07
3.1598e-08
-8.91061e-07
3.42857e-08
-8.58205e-07
3.69295e-08
-8.22371e-07
3.95072e-08
-7.8359e-07
4.19852e-08
-7.41893e-07
4.4322e-08
-6.97307e-07
4.648e-08
-6.49864e-07
4.84232e-08
-5.99636e-07
5.01197e-08
-5.46757e-07
5.14657e-08
-4.91395e-07
5.19985e-08
-4.34113e-07
5.1229e-08
-3.78759e-07
4.88556e-08
-3.42334e-07
3.44909e-08
-3.20681e-07
-6.05682e-06
-1.27451e-05
-5.21282e-06
-2.95267e-07
-3.32556e-06
-1.19167e-06
-2.69528e-06
5.02886e-08
-1.98534e-06
-1.14932e-07
-1.46612e-06
3.67337e-07
-9.48965e-07
4.14323e-07
-6.41537e-07
3.13437e-07
-4.27646e-07
2.25081e-07
4.81798e-08
-5.14532e-10
-3.3772e-07
-1.02503e-09
-3.38884e-07
-1.53695e-09
-3.39501e-07
-2.05431e-09
-3.40339e-07
-2.5775e-09
-3.4148e-07
-3.10437e-09
-3.42985e-07
-3.63294e-09
-3.44863e-07
-4.16256e-09
-3.47095e-07
-4.69357e-09
-3.49666e-07
-5.22654e-09
-3.52568e-07
-5.76204e-09
-3.55799e-07
-6.3005e-09
-3.59362e-07
-6.84227e-09
-3.63257e-07
-7.38761e-09
-3.67487e-07
-7.93676e-09
-3.72053e-07
-8.4899e-09
-3.76959e-07
-9.04718e-09
-3.82207e-07
-9.60871e-09
-3.87799e-07
-1.01746e-08
-3.93738e-07
-1.07448e-08
-4.00026e-07
-1.13193e-08
-4.06667e-07
-1.18982e-08
-4.13662e-07
-1.24812e-08
-4.21015e-07
-1.30683e-08
-4.28728e-07
-1.36592e-08
-4.36804e-07
-1.42536e-08
-4.45245e-07
-1.4851e-08
-4.54053e-07
-1.54512e-08
-4.63229e-07
-1.60535e-08
-4.72777e-07
-1.66574e-08
-4.82696e-07
-1.7262e-08
-4.92988e-07
-1.78665e-08
-5.03654e-07
-1.84699e-08
-5.14694e-07
-1.90711e-08
-5.26106e-07
-1.96689e-08
-5.3789e-07
-2.02618e-08
-5.50043e-07
-2.08483e-08
-5.62563e-07
-2.14266e-08
-5.75446e-07
-2.19946e-08
-5.88687e-07
-2.25504e-08
-6.0228e-07
-2.30913e-08
-6.16217e-07
-2.36149e-08
-6.3049e-07
-2.41183e-08
-6.45089e-07
-2.45982e-08
-6.6e-07
-2.50513e-08
-6.7521e-07
-2.54739e-08
-6.90704e-07
-2.58619e-08
-7.06461e-07
-2.6211e-08
-7.22463e-07
-2.65165e-08
-7.38685e-07
-2.67733e-08
-7.55101e-07
-2.69763e-08
-7.71681e-07
-2.71196e-08
-7.88394e-07
-2.71972e-08
-8.05204e-07
-2.72027e-08
-8.2207e-07
-2.71294e-08
-8.38949e-07
-2.69702e-08
-8.55794e-07
-2.67177e-08
-8.72553e-07
-2.63644e-08
-8.89169e-07
-2.59023e-08
-9.05582e-07
-2.53232e-08
-9.21725e-07
-2.4619e-08
-9.37528e-07
-2.37812e-08
-9.52915e-07
-2.28015e-08
-9.67804e-07
-2.16714e-08
-9.8211e-07
-2.03828e-08
-9.95741e-07
-1.89277e-08
-1.0086e-06
-1.72985e-08
-1.02059e-06
-1.54881e-08
-1.03159e-06
-1.34898e-08
-1.04151e-06
-1.12981e-08
-1.05022e-06
-8.90816e-09
-1.0576e-06
-6.31619e-09
-1.06354e-06
-3.51969e-09
-1.06791e-06
-5.17519e-10
-1.07057e-06
2.6879e-09
-1.07141e-06
6.09599e-09
-1.07029e-06
9.70183e-09
-1.06709e-06
1.34986e-08
-1.06169e-06
1.74774e-08
-1.05395e-06
2.16266e-08
-1.04376e-06
2.59324e-08
-1.03102e-06
3.03781e-08
-1.01562e-06
3.49442e-08
-9.97463e-07
3.96086e-08
-9.76471e-07
4.4346e-08
-9.52573e-07
4.91282e-08
-9.25714e-07
5.39234e-08
-8.95856e-07
5.86959e-08
-8.62978e-07
6.3405e-08
-8.2708e-07
6.8014e-08
-7.88199e-07
7.24707e-08
-7.4635e-07
7.67088e-08
-7.01546e-07
8.06969e-08
-6.53852e-07
8.44444e-08
-6.03384e-07
8.79851e-08
-5.50298e-07
9.13495e-08
-4.94759e-07
9.43742e-08
-4.37138e-07
9.68722e-08
-3.81257e-07
1.01346e-07
-3.46807e-07
1.03574e-07
-3.2291e-07
-5.58806e-06
-7.05348e-06
-4.80683e-06
-1.07649e-06
-2.89812e-06
-3.10037e-06
-2.33212e-06
-5.157e-07
-1.63466e-06
-8.12384e-07
-1.19821e-06
-6.91018e-08
-7.5081e-07
-3.30678e-08
-5.1816e-07
8.07921e-08
-3.59223e-07
6.61472e-08
7.09365e-09
-8.14391e-10
-3.36905e-07
-1.62429e-09
-3.38074e-07
-2.4319e-09
-3.38694e-07
-3.24251e-09
-3.39528e-07
-4.05856e-09
-3.40664e-07
-4.8795e-09
-3.42164e-07
-5.70409e-09
-3.44038e-07
-6.53183e-09
-3.46267e-07
-7.36291e-09
-3.48835e-07
-8.19781e-09
-3.51733e-07
-9.03708e-09
-3.5496e-07
-9.88121e-09
-3.58518e-07
-1.07306e-08
-3.62407e-07
-1.15857e-08
-3.66632e-07
-1.24468e-08
-3.71192e-07
-1.33142e-08
-3.76092e-07
-1.41881e-08
-3.81333e-07
-1.50686e-08
-3.86918e-07
-1.59559e-08
-3.9285e-07
-1.685e-08
-3.99132e-07
-1.7751e-08
-4.05766e-07
-1.86587e-08
-4.12754e-07
-1.9573e-08
-4.20101e-07
-2.04936e-08
-4.27808e-07
-2.14202e-08
-4.35878e-07
-2.23523e-08
-4.44313e-07
-2.32893e-08
-4.53115e-07
-2.42306e-08
-4.62288e-07
-2.51753e-08
-4.71832e-07
-2.61224e-08
-4.81749e-07
-2.70708e-08
-4.9204e-07
-2.80192e-08
-5.02706e-07
-2.8966e-08
-5.13747e-07
-2.99094e-08
-5.25162e-07
-3.08476e-08
-5.36951e-07
-3.17784e-08
-5.49112e-07
-3.26993e-08
-5.61642e-07
-3.36075e-08
-5.74538e-07
-3.45e-08
-5.87795e-07
-3.53735e-08
-6.01407e-07
-3.62241e-08
-6.15367e-07
-3.70479e-08
-6.29667e-07
-3.78404e-08
-6.44296e-07
-3.85967e-08
-6.59244e-07
-3.93114e-08
-6.74496e-07
-3.99788e-08
-6.90036e-07
-4.05926e-08
-7.05848e-07
-4.11462e-08
-7.2191e-07
-4.16322e-08
-7.38199e-07
-4.20429e-08
-7.5469e-07
-4.23699e-08
-7.71355e-07
-4.26045e-08
-7.8816e-07
-4.27371e-08
-8.05071e-07
-4.27578e-08
-8.22049e-07
-4.26563e-08
-8.39051e-07
-4.24214e-08
-8.56029e-07
-4.20418e-08
-8.72933e-07
-4.15054e-08
-8.89706e-07
-4.08e-08
-9.06287e-07
-3.99129e-08
-9.22612e-07
-3.88312e-08
-9.3861e-07
-3.75417e-08
-9.54204e-07
-3.60314e-08
-9.69315e-07
-3.42871e-08
-9.83855e-07
-3.22959e-08
-9.97733e-07
-3.00451e-08
-1.01085e-06
-2.75228e-08
-1.02311e-06
-2.47176e-08
-1.0344e-06
-2.16191e-08
-1.04461e-06
-1.82181e-08
-1.05362e-06
-1.45068e-08
-1.06132e-06
-1.0479e-08
-1.06757e-06
-6.13039e-09
-1.07225e-06
-1.45921e-09
-1.07524e-06
3.53358e-09
-1.0764e-06
8.84548e-09
-1.07561e-06
1.447e-08
-1.07272e-06
2.03973e-08
-1.06761e-06
2.66141e-08
-1.06016e-06
3.31035e-08
-1.05025e-06
3.98444e-08
-1.03776e-06
4.68117e-08
-1.02259e-06
5.39759e-08
-1.00463e-06
6.13032e-08
-9.83798e-07
6.87553e-08
-9.60025e-07
7.62891e-08
-9.33248e-07
8.38563e-08
-9.03423e-07
9.14026e-08
-8.70524e-07
9.88695e-08
-8.34547e-07
1.06203e-07
-7.95533e-07
1.13347e-07
-7.53494e-07
1.20253e-07
-7.08452e-07
1.26894e-07
-6.60493e-07
1.33246e-07
-6.09736e-07
1.39276e-07
-5.56327e-07
1.4491e-07
-5.00393e-07
1.49964e-07
-4.42191e-07
1.54281e-07
-3.85574e-07
1.59043e-07
-3.5157e-07
1.68571e-07
-3.32438e-07
-1.91492e-06
-4.97e-06
-1.65664e-06
-1.33476e-06
-1.82701e-06
-2.92999e-06
-1.54416e-06
-7.98549e-07
-1.2928e-06
-1.06374e-06
-1.03064e-06
-3.31258e-07
-7.86698e-07
-2.77e-07
-6.11648e-07
-9.4255e-08
-4.96821e-07
-4.86778e-08
-3.60375e-08
-1.1268e-09
-3.35779e-07
-2.25315e-09
-3.36947e-07
-3.37751e-09
-3.37569e-07
-4.50369e-09
-3.38402e-07
-5.6343e-09
-3.39533e-07
-6.77e-09
-3.41029e-07
-7.91064e-09
-3.42898e-07
-9.0562e-09
-3.45122e-07
-1.0207e-08
-3.47684e-07
-1.13636e-08
-3.50576e-07
-1.25264e-08
-3.53797e-07
-1.36962e-08
-3.57348e-07
-1.48735e-08
-3.6123e-07
-1.60587e-08
-3.65446e-07
-1.72523e-08
-3.69999e-07
-1.84546e-08
-3.7489e-07
-1.96659e-08
-3.80122e-07
-2.08865e-08
-3.85698e-07
-2.21166e-08
-3.9162e-07
-2.33562e-08
-3.97892e-07
-2.46054e-08
-4.04517e-07
-2.58639e-08
-4.11496e-07
-2.71316e-08
-4.18833e-07
-2.84081e-08
-4.26531e-07
-2.9693e-08
-4.34593e-07
-3.09857e-08
-4.4302e-07
-3.22853e-08
-4.51816e-07
-3.35909e-08
-4.60982e-07
-3.49014e-08
-4.70521e-07
-3.62154e-08
-4.80435e-07
-3.75313e-08
-4.90724e-07
-3.88474e-08
-5.0139e-07
-4.01615e-08
-5.12432e-07
-4.14713e-08
-5.23852e-07
-4.27741e-08
-5.35648e-07
-4.40669e-08
-5.47819e-07
-4.53462e-08
-5.60363e-07
-4.66084e-08
-5.73276e-07
-4.78493e-08
-5.86554e-07
-4.90641e-08
-6.00192e-07
-5.02479e-08
-6.14183e-07
-5.13949e-08
-6.2852e-07
-5.24991e-08
-6.43192e-07
-5.35537e-08
-6.58189e-07
-5.45513e-08
-6.73498e-07
-5.54841e-08
-6.89104e-07
-5.63435e-08
-7.04989e-07
-5.712e-08
-7.21133e-07
-5.78038e-08
-7.37515e-07
-5.83841e-08
-7.5411e-07
-5.88493e-08
-7.70889e-07
-5.91874e-08
-7.87822e-07
-5.93852e-08
-8.04874e-07
-5.9429e-08
-8.22006e-07
-5.93044e-08
-8.39176e-07
-5.89961e-08
-8.56338e-07
-5.84882e-08
-8.73441e-07
-5.77642e-08
-8.9043e-07
-5.68069e-08
-9.07245e-07
-5.55989e-08
-9.2382e-07
-5.4122e-08
-9.40087e-07
-5.23581e-08
-9.55968e-07
-5.02887e-08
-9.71384e-07
-4.78956e-08
-9.86248e-07
-4.51606e-08
-1.00047e-06
-4.20661e-08
-1.01395e-06
-3.85952e-08
-1.02658e-06
-3.47317e-08
-1.03826e-06
-3.0461e-08
-1.04888e-06
-2.577e-08
-1.05831e-06
-2.06473e-08
-1.06644e-06
-1.5084e-08
-1.07313e-06
-9.07363e-09
-1.07827e-06
-2.61303e-09
-1.0817e-06
4.2971e-09
-1.08331e-06
1.16539e-08
-1.08296e-06
1.94488e-08
-1.08051e-06
2.7669e-08
-1.07583e-06
3.62968e-08
-1.06879e-06
4.53091e-08
-1.05926e-06
5.46776e-08
-1.04713e-06
6.4368e-08
-1.03228e-06
7.43402e-08
-1.0146e-06
8.4548e-08
-9.94006e-07
9.49391e-08
-9.70416e-07
1.05455e-07
-9.43764e-07
1.16031e-07
-9.13999e-07
1.26596e-07
-8.81089e-07
1.37086e-07
-8.45038e-07
1.47431e-07
-8.05878e-07
1.5756e-07
-7.63623e-07
1.67392e-07
-7.18284e-07
1.76851e-07
-6.69952e-07
1.85868e-07
-6.18753e-07
1.94376e-07
-5.64835e-07
2.02283e-07
-5.083e-07
2.09501e-07
-4.49409e-07
2.15898e-07
-3.91971e-07
2.22165e-07
-3.57837e-07
2.31756e-07
-3.42029e-07
-9.41282e-07
-3.79696e-06
-8.32673e-07
-1.44337e-06
-1.22897e-06
-2.53369e-06
-1.06334e-06
-9.64166e-07
-9.64587e-07
-1.16249e-06
-7.74424e-07
-5.21417e-07
-6.06753e-07
-4.44668e-07
-4.82954e-07
-2.18052e-07
-4.02991e-07
-1.2864e-07
-6.45514e-08
-1.44226e-09
-3.34336e-07
-2.88716e-09
-3.35502e-07
-4.33178e-09
-3.36125e-07
-5.77835e-09
-3.36955e-07
-7.22896e-09
-3.38083e-07
-8.68481e-09
-3.39573e-07
-1.01465e-08
-3.41436e-07
-1.16146e-08
-3.43654e-07
-1.30896e-08
-3.46209e-07
-1.45723e-08
-3.49093e-07
-1.60633e-08
-3.52306e-07
-1.75633e-08
-3.55848e-07
-1.9073e-08
-3.59721e-07
-2.0593e-08
-3.63926e-07
-2.21238e-08
-3.68468e-07
-2.36659e-08
-3.73347e-07
-2.52198e-08
-3.78568e-07
-2.67856e-08
-3.84132e-07
-2.83637e-08
-3.90042e-07
-2.99541e-08
-3.96302e-07
-3.15568e-08
-4.02914e-07
-3.31718e-08
-4.09881e-07
-3.47986e-08
-4.17206e-07
-3.6437e-08
-4.24893e-07
-3.80864e-08
-4.32943e-07
-3.97458e-08
-4.4136e-07
-4.14145e-08
-4.50147e-07
-4.30911e-08
-4.59305e-07
-4.47743e-08
-4.68838e-07
-4.64623e-08
-4.78747e-07
-4.81531e-08
-4.89033e-07
-4.98446e-08
-4.99698e-07
-5.15339e-08
-5.10743e-07
-5.32182e-08
-5.22168e-07
-5.48939e-08
-5.33973e-07
-5.65574e-08
-5.46156e-07
-5.82043e-08
-5.58716e-07
-5.98298e-08
-5.7165e-07
-6.14287e-08
-5.84955e-07
-6.29949e-08
-5.98625e-07
-6.45221e-08
-6.12656e-07
-6.6003e-08
-6.27039e-07
-6.74299e-08
-6.41765e-07
-6.87942e-08
-6.56825e-07
-7.00865e-08
-6.72206e-07
-7.12967e-08
-6.87894e-07
-7.24139e-08
-7.03872e-07
-7.34261e-08
-7.20121e-07
-7.43205e-08
-7.36621e-07
-7.50836e-08
-7.53347e-07
-7.57004e-08
-7.70273e-07
-7.61555e-08
-7.87368e-07
-7.64321e-08
-8.04597e-07
-7.65126e-08
-8.21925e-07
-7.63784e-08
-8.3931e-07
-7.601e-08
-8.56706e-07
-7.53869e-08
-8.74064e-07
-7.44878e-08
-8.91329e-07
-7.32907e-08
-9.08442e-07
-7.17728e-08
-9.25338e-07
-6.9911e-08
-9.41949e-07
-6.76816e-08
-9.58198e-07
-6.50607e-08
-9.74005e-07
-6.20246e-08
-9.89284e-07
-5.85497e-08
-1.00394e-06
-5.4613e-08
-1.01788e-06
-5.01922e-08
-1.031e-06
-4.52663e-08
-1.04319e-06
-3.98158e-08
-1.05433e-06
-3.38233e-08
-1.0643e-06
-2.72737e-08
-1.07299e-06
-2.01547e-08
-1.08025e-06
-1.24574e-08
-1.08596e-06
-4.17696e-09
-1.08998e-06
4.68668e-09
-1.09218e-06
1.41308e-08
-1.09241e-06
2.41449e-08
-1.09053e-06
3.47133e-08
-1.0864e-06
4.58141e-08
-1.07989e-06
5.74186e-08
-1.07087e-06
6.94909e-08
-1.0592e-06
8.19877e-08
-1.04477e-06
9.48581e-08
-1.02747e-06
1.08043e-07
-1.00719e-06
1.21477e-07
-9.83849e-07
1.35085e-07
-9.57371e-07
1.48786e-07
-9.277e-07
1.62494e-07
-8.94797e-07
1.76126e-07
-8.5867e-07
1.89576e-07
-8.19329e-07
2.02738e-07
-7.76785e-07
2.15512e-07
-7.31057e-07
2.27798e-07
-6.82239e-07
2.39497e-07
-6.30451e-07
2.50507e-07
-5.75845e-07
2.6071e-07
-5.18504e-07
2.70031e-07
-4.58731e-07
2.78229e-07
-4.00168e-07
2.85665e-07
-3.65272e-07
2.94338e-07
-3.50703e-07
-3.52251e-07
-3.15037e-06
-3.17282e-07
-1.47833e-06
-6.85209e-07
-2.16576e-06
-6.39187e-07
-1.01019e-06
-6.4087e-07
-1.16081e-06
-5.42114e-07
-6.2017e-07
-4.56951e-07
-5.2983e-07
-3.79235e-07
-2.95766e-07
-3.27759e-07
-1.80115e-07
-8.31507e-08
-1.75841e-09
-3.32578e-07
-3.5215e-09
-3.33739e-07
-5.28569e-09
-3.34361e-07
-7.05244e-09
-3.35189e-07
-8.82342e-09
-3.36312e-07
-1.06001e-08
-3.37796e-07
-1.23835e-08
-3.39653e-07
-1.41747e-08
-3.41863e-07
-1.59744e-08
-3.44409e-07
-1.77836e-08
-3.47284e-07
-1.96031e-08
-3.50487e-07
-2.14338e-08
-3.54017e-07
-2.32765e-08
-3.57878e-07
-2.51319e-08
-3.62071e-07
-2.70006e-08
-3.66599e-07
-2.88833e-08
-3.71465e-07
-3.07804e-08
-3.76671e-07
-3.26924e-08
-3.8222e-07
-3.46195e-08
-3.88115e-07
-3.65619e-08
-3.9436e-07
-3.85196e-08
-4.00956e-07
-4.04924e-08
-4.07908e-07
-4.24801e-08
-4.15219e-07
-4.44822e-08
-4.22891e-07
-4.64979e-08
-4.30927e-07
-4.85264e-08
-4.39332e-07
-5.05666e-08
-4.48107e-07
-5.26169e-08
-4.57255e-07
-5.46756e-08
-4.66779e-07
-5.67409e-08
-4.76681e-07
-5.88102e-08
-4.86963e-07
-6.08808e-08
-4.97627e-07
-6.29496e-08
-5.08674e-07
-6.50129e-08
-5.20104e-07
-6.70667e-08
-5.31919e-07
-6.91064e-08
-5.44116e-07
-7.11267e-08
-5.56695e-07
-7.3122e-08
-5.69655e-07
-7.50858e-08
-5.82991e-07
-7.70111e-08
-5.967e-07
-7.88899e-08
-6.10777e-07
-8.07135e-08
-6.25215e-07
-8.24727e-08
-6.40006e-07
-8.41569e-08
-6.55141e-07
-8.57548e-08
-6.70608e-07
-8.72542e-08
-6.86395e-07
-8.86417e-08
-7.02484e-07
-8.99029e-08
-7.1886e-07
-9.10222e-08
-7.35502e-07
-9.1983e-08
-7.52387e-07
-9.27674e-08
-7.69489e-07
-9.33562e-08
-7.86779e-07
-9.37291e-08
-8.04225e-07
-9.38647e-08
-8.2179e-07
-9.374e-08
-8.39435e-07
-9.33313e-08
-8.57115e-07
-9.26134e-08
-8.74782e-07
-9.15602e-08
-8.92383e-07
-9.01446e-08
-9.09858e-07
-8.83386e-08
-9.27145e-07
-8.61135e-08
-9.44174e-07
-8.34402e-08
-9.60871e-07
-8.02892e-08
-9.77156e-07
-7.66308e-08
-9.92942e-07
-7.24358e-08
-1.00814e-06
-6.76754e-08
-1.02264e-06
-6.23217e-08
-1.03635e-06
-5.63484e-08
-1.04916e-06
-4.97308e-08
-1.06095e-06
-4.24467e-08
-1.07159e-06
-3.44766e-08
-1.08096e-06
-2.58047e-08
-1.08892e-06
-1.6419e-08
-1.09535e-06
-6.31232e-09
-1.10009e-06
4.51628e-09
-1.10301e-06
1.60655e-08
-1.10396e-06
2.83225e-08
-1.10278e-06
4.12696e-08
-1.09935e-06
5.4881e-08
-1.0935e-06
6.91226e-08
-1.08511e-06
8.39513e-08
-1.07403e-06
9.93151e-08
-1.06014e-06
1.15152e-07
-1.04331e-06
1.31391e-07
-1.02343e-06
1.47951e-07
-1.00041e-06
1.64742e-07
-9.74162e-07
1.81665e-07
-9.44623e-07
1.98616e-07
-9.11748e-07
2.15467e-07
-8.75521e-07
2.32096e-07
-8.35957e-07
2.4837e-07
-7.93059e-07
2.64172e-07
-7.46859e-07
2.79373e-07
-6.97439e-07
2.9384e-07
-6.44918e-07
3.07441e-07
-5.89446e-07
3.20026e-07
-5.31088e-07
3.31497e-07
-4.70202e-07
3.415e-07
-4.10171e-07
3.50421e-07
-3.74193e-07
3.59502e-07
-3.59784e-07
-3.9851e-08
-2.75101e-06
-7.7263e-08
-1.44092e-06
-3.26339e-07
-1.91668e-06
-3.36015e-07
-1.00051e-06
-3.66143e-07
-1.13068e-06
-3.20717e-07
-6.65595e-07
-2.7344e-07
-5.77105e-07
-2.29825e-07
-3.39381e-07
-1.96034e-07
-2.13906e-07
-9.20056e-08
-2.07419e-09
-3.30504e-07
-4.15454e-09
-3.31659e-07
-6.23694e-09
-3.32278e-07
-8.32256e-09
-3.33103e-07
-1.04129e-08
-3.34221e-07
-1.25097e-08
-3.35699e-07
-1.46142e-08
-3.37548e-07
-1.67278e-08
-3.39749e-07
-1.88516e-08
-3.42285e-07
-2.09867e-08
-3.45149e-07
-2.31342e-08
-3.48339e-07
-2.5295e-08
-3.51856e-07
-2.74702e-08
-3.55703e-07
-2.96605e-08
-3.59881e-07
-3.18668e-08
-3.64393e-07
-3.40898e-08
-3.69242e-07
-3.63301e-08
-3.74431e-07
-3.85881e-08
-3.79962e-07
-4.08644e-08
-3.85839e-07
-4.3159e-08
-3.92065e-07
-4.54719e-08
-3.98643e-07
-4.78032e-08
-4.05577e-07
-5.01525e-08
-4.12869e-07
-5.25191e-08
-4.20524e-07
-5.49024e-08
-4.28544e-07
-5.73014e-08
-4.36933e-07
-5.97146e-08
-4.45693e-07
-6.21406e-08
-4.54829e-07
-6.45772e-08
-4.64342e-07
-6.70223e-08
-4.74236e-07
-6.94731e-08
-4.84512e-07
-7.19263e-08
-4.95174e-07
-7.43784e-08
-5.06222e-07
-7.68251e-08
-5.17658e-07
-7.92618e-08
-5.29482e-07
-8.16831e-08
-5.41695e-07
-8.40829e-08
-5.54295e-07
-8.64547e-08
-5.67283e-07
-8.87908e-08
-5.80655e-07
-9.10831e-08
-5.94408e-07
-9.33224e-08
-6.08538e-07
-9.54985e-08
-6.23039e-07
-9.76005e-08
-6.37905e-07
-9.96161e-08
-6.53126e-07
-1.01532e-07
-6.68693e-07
-1.03334e-07
-6.84593e-07
-1.05007e-07
-7.00812e-07
-1.06532e-07
-7.17335e-07
-1.07893e-07
-7.34142e-07
-1.0907e-07
-7.51211e-07
-1.10041e-07
-7.68518e-07
-1.10784e-07
-7.86037e-07
-1.11275e-07
-8.03734e-07
-1.11488e-07
-8.21577e-07
-1.11397e-07
-8.39527e-07
-1.10973e-07
-8.5754e-07
-1.10186e-07
-8.75569e-07
-1.09005e-07
-8.93563e-07
-1.07399e-07
-9.11465e-07
-1.05333e-07
-9.29211e-07
-1.02773e-07
-9.46734e-07
-9.96852e-08
-9.63959e-07
-9.60329e-08
-9.80808e-07
-9.17808e-08
-9.97194e-07
-8.68937e-08
-1.01302e-06
-8.13365e-08
-1.0282e-06
-7.50755e-08
-1.04262e-06
-6.80783e-08
-1.05616e-06
-6.03147e-08
-1.06871e-06
-5.17571e-08
-1.08015e-06
-4.23811e-08
-1.09033e-06
-3.21666e-08
-1.09914e-06
-2.10981e-08
-1.10642e-06
-9.16551e-09
-1.11202e-06
3.63345e-09
-1.1158e-06
1.73006e-08
-1.11762e-06
3.18204e-08
-1.1173e-06
4.71738e-08
-1.1147e-06
6.33318e-08
-1.10966e-06
8.02554e-08
-1.10203e-06
9.78948e-08
-1.09167e-06
1.16189e-07
-1.07843e-06
1.35066e-07
-1.06218e-06
1.54442e-07
-1.04281e-06
1.7422e-07
-1.02019e-06
1.94294e-07
-9.94236e-07
2.14545e-07
-9.64874e-07
2.34831e-07
-9.32034e-07
2.55003e-07
-8.95693e-07
2.74922e-07
-8.55877e-07
2.94441e-07
-8.12577e-07
3.13406e-07
-7.65824e-07
3.31658e-07
-7.15691e-07
3.49031e-07
-6.62291e-07
3.65358e-07
-6.05773e-07
3.80456e-07
-5.46186e-07
3.94199e-07
-4.83944e-07
4.06147e-07
-4.22119e-07
4.16751e-07
-3.84797e-07
4.27227e-07
-3.7026e-07
1.58879e-07
-2.48266e-06
1.54524e-07
-1.43656e-06
-3.77125e-08
-1.72445e-06
-9.05885e-08
-9.47629e-07
-1.19574e-07
-1.10169e-06
-1.18157e-07
-6.67011e-07
-8.88124e-08
-6.06449e-07
-7.46687e-08
-3.53524e-07
-4.77736e-08
-2.408e-07
-9.26233e-08
-2.389e-09
-3.28115e-07
-4.78537e-09
-3.29263e-07
-7.1845e-09
-3.29879e-07
-9.58749e-09
-3.307e-07
-1.19959e-08
-3.31813e-07
-1.44115e-08
-3.33284e-07
-1.68361e-08
-3.35124e-07
-1.92711e-08
-3.37314e-07
-2.17179e-08
-3.39838e-07
-2.41779e-08
-3.42689e-07
-2.66524e-08
-3.45865e-07
-2.91424e-08
-3.49366e-07
-3.16492e-08
-3.53196e-07
-3.41737e-08
-3.57356e-07
-3.67169e-08
-3.6185e-07
-3.92796e-08
-3.66679e-07
-4.18626e-08
-3.71848e-07
-4.44665e-08
-3.77358e-07
-4.70917e-08
-3.83214e-07
-4.97384e-08
-3.89418e-07
-5.24069e-08
-3.95975e-07
-5.5097e-08
-4.02887e-07
-5.78083e-08
-4.10158e-07
-6.05404e-08
-4.17792e-07
-6.32924e-08
-4.25792e-07
-6.60631e-08
-4.34162e-07
-6.88512e-08
-4.42905e-07
-7.16548e-08
-4.52025e-07
-7.44717e-08
-4.61525e-07
-7.72995e-08
-4.71408e-07
-8.01349e-08
-4.81677e-07
-8.29745e-08
-4.92334e-07
-8.58141e-08
-5.03382e-07
-8.86491e-08
-5.14822e-07
-9.14741e-08
-5.26657e-07
-9.4283e-08
-5.38885e-07
-9.70691e-08
-5.51509e-07
-9.98249e-08
-5.64527e-07
-1.02542e-07
-5.77938e-07
-1.0521e-07
-5.91739e-07
-1.0782e-07
-6.05928e-07
-1.1036e-07
-6.205e-07
-1.12817e-07
-6.35448e-07
-1.15177e-07
-6.50766e-07
-1.17426e-07
-6.66444e-07
-1.19546e-07
-6.82473e-07
-1.2152e-07
-6.98838e-07
-1.23329e-07
-7.15527e-07
-1.24952e-07
-7.3252e-07
-1.26365e-07
-7.49798e-07
-1.27545e-07
-7.67339e-07
-1.28466e-07
-7.85116e-07
-1.291e-07
-8.03101e-07
-1.29418e-07
-8.2126e-07
-1.29388e-07
-8.39557e-07
-1.28979e-07
-8.5795e-07
-1.28154e-07
-8.76394e-07
-1.26879e-07
-8.94839e-07
-1.25114e-07
-9.13229e-07
-1.22823e-07
-9.31502e-07
-1.19964e-07
-9.49593e-07
-1.16496e-07
-9.67427e-07
-1.12378e-07
-9.84927e-07
-1.07567e-07
-1.002e-06
-1.02022e-07
-1.01857e-06
-9.57018e-08
-1.03452e-06
-8.85654e-08
-1.04975e-06
-8.05742e-08
-1.06415e-06
-7.16917e-08
-1.07759e-06
-6.18844e-08
-1.08995e-06
-5.11223e-08
-1.10109e-06
-3.93802e-08
-1.11088e-06
-2.6638e-08
-1.11916e-06
-1.28823e-08
-1.12578e-06
1.89022e-09
-1.13058e-06
1.76877e-08
-1.13342e-06
3.44903e-08
-1.13411e-06
5.22795e-08
-1.13249e-06
7.10238e-08
-1.12841e-06
9.06797e-08
-1.12169e-06
1.11191e-07
-1.11218e-06
1.32489e-07
-1.09973e-06
1.5449e-07
-1.08418e-06
1.77098e-07
-1.06541e-06
2.00202e-07
-1.04329e-06
2.23677e-07
-1.01771e-06
2.47364e-07
-9.88561e-07
2.71091e-07
-9.5576e-07
2.94722e-07
-9.19324e-07
3.18092e-07
-8.79247e-07
3.41021e-07
-8.35506e-07
3.63321e-07
-7.88124e-07
3.84796e-07
-7.37167e-07
4.05247e-07
-6.82742e-07
4.24472e-07
-6.24998e-07
4.42249e-07
-5.63963e-07
4.58427e-07
-5.00122e-07
4.72486e-07
-4.36179e-07
4.84968e-07
-3.97279e-07
4.96974e-07
-3.82266e-07
3.14199e-07
-2.29989e-06
3.39055e-07
-1.46142e-06
1.46739e-07
-1.53213e-06
1.33627e-07
-9.34515e-07
7.96051e-08
-1.04767e-06
7.962e-08
-6.67024e-07
8.02114e-08
-6.0704e-07
9.40817e-08
-3.67393e-07
9.86128e-08
-2.45331e-07
-1.00031e-07
-2.70244e-09
-3.25412e-07
-5.41335e-09
-3.26552e-07
-8.1276e-09
-3.27165e-07
-1.08463e-08
-3.27981e-07
-1.35712e-08
-3.29088e-07
-1.63042e-08
-3.30551e-07
-1.90474e-08
-3.3238e-07
-2.18025e-08
-3.34559e-07
-2.45711e-08
-3.3707e-07
-2.73548e-08
-3.39906e-07
-3.01551e-08
-3.43065e-07
-3.29732e-08
-3.46548e-07
-3.58105e-08
-3.50359e-07
-3.86683e-08
-3.54499e-07
-4.15475e-08
-3.58971e-07
-4.44493e-08
-3.63777e-07
-4.73744e-08
-3.68922e-07
-5.03237e-08
-3.74409e-07
-5.32975e-08
-3.8024e-07
-5.62964e-08
-3.86419e-07
-5.93205e-08
-3.92951e-07
-6.23697e-08
-3.99838e-07
-6.54437e-08
-4.07084e-07
-6.85421e-08
-4.14693e-07
-7.16638e-08
-4.2267e-07
-7.48078e-08
-4.31018e-07
-7.79725e-08
-4.3974e-07
-8.1156e-08
-4.48841e-07
-8.43559e-08
-4.58325e-07
-8.75693e-08
-4.68194e-07
-9.07931e-08
-4.78453e-07
-9.40231e-08
-4.89104e-07
-9.7255e-08
-5.0015e-07
-1.00484e-07
-5.11594e-07
-1.03703e-07
-5.23437e-07
-1.06906e-07
-5.35682e-07
-1.10086e-07
-5.48329e-07
-1.13235e-07
-5.61379e-07
-1.16342e-07
-5.74831e-07
-1.19397e-07
-5.88684e-07
-1.22389e-07
-6.02936e-07
-1.25305e-07
-6.17584e-07
-1.28131e-07
-6.32622e-07
-1.30851e-07
-6.48046e-07
-1.33449e-07
-6.63847e-07
-1.35905e-07
-6.80016e-07
-1.38201e-07
-6.96543e-07
-1.40314e-07
-7.13414e-07
-1.4222e-07
-7.30614e-07
-1.43894e-07
-7.48124e-07
-1.45309e-07
-7.65924e-07
-1.46436e-07
-7.8399e-07
-1.47243e-07
-8.02295e-07
-1.47697e-07
-8.20807e-07
-1.47762e-07
-8.39492e-07
-1.47401e-07
-8.58311e-07
-1.46574e-07
-8.77221e-07
-1.45241e-07
-8.96173e-07
-1.43358e-07
-9.15112e-07
-1.40881e-07
-9.3398e-07
-1.37763e-07
-9.52711e-07
-1.33957e-07
-9.71233e-07
-1.29415e-07
-9.89469e-07
-1.24087e-07
-1.00733e-06
-1.17926e-07
-1.02473e-06
-1.10883e-07
-1.04156e-06
-1.02909e-07
-1.05773e-06
-9.39602e-08
-1.0731e-06
-8.3992e-08
-1.08756e-06
-7.29644e-08
-1.10098e-06
-6.08411e-08
-1.11322e-06
-4.75908e-08
-1.12413e-06
-3.31879e-08
-1.13356e-06
-1.76131e-08
-1.14135e-06
-8.529e-10
-1.14734e-06
1.70742e-08
-1.15135e-06
3.61788e-08
-1.15321e-06
5.64358e-08
-1.15275e-06
7.78103e-08
-1.14978e-06
1.00255e-07
-1.14413e-06
1.23708e-07
-1.13563e-06
1.48092e-07
-1.12411e-06
1.73314e-07
-1.10941e-06
1.99265e-07
-1.09136e-06
2.25818e-07
-1.06984e-06
2.52806e-07
-1.0447e-06
2.80036e-07
-1.01579e-06
3.07367e-07
-9.83091e-07
3.34643e-07
-9.466e-07
3.61657e-07
-9.06261e-07
3.88195e-07
-8.62043e-07
4.14032e-07
-8.13961e-07
4.38936e-07
-7.62071e-07
4.62671e-07
-7.06476e-07
4.84998e-07
-6.47324e-07
5.05657e-07
-5.84622e-07
5.24466e-07
-5.18932e-07
5.40827e-07
-4.5254e-07
5.55375e-07
-4.11826e-07
5.69104e-07
-3.95995e-07
4.46779e-07
-2.17757e-06
4.79641e-07
-1.49428e-06
3.12118e-07
-1.3646e-06
3.27293e-07
-9.49689e-07
2.50337e-07
-9.70707e-07
2.68188e-07
-6.84873e-07
2.42736e-07
-5.81586e-07
2.5976e-07
-3.84415e-07
2.53601e-07
-2.39172e-07
-1.0843e-07
-3.0142e-09
-3.22398e-07
-6.03794e-09
-3.23528e-07
-9.06551e-09
-3.24137e-07
-1.20982e-08
-3.24949e-07
-1.51378e-08
-3.26049e-07
-1.81866e-08
-3.27502e-07
-2.12468e-08
-3.2932e-07
-2.43204e-08
-3.31486e-07
-2.74093e-08
-3.33981e-07
-3.05152e-08
-3.368e-07
-3.36399e-08
-3.3994e-07
-3.67848e-08
-3.43403e-07
-3.99515e-08
-3.47192e-07
-4.31414e-08
-3.51309e-07
-4.63558e-08
-3.55756e-07
-4.95957e-08
-3.60538e-07
-5.28623e-08
-3.65656e-07
-5.61563e-08
-3.71115e-07
-5.94785e-08
-3.76918e-07
-6.28293e-08
-3.83069e-07
-6.6209e-08
-3.89571e-07
-6.96176e-08
-3.96429e-07
-7.3055e-08
-4.03646e-07
-7.65204e-08
-4.11228e-07
-8.00131e-08
-4.19177e-07
-8.3532e-08
-4.27499e-07
-8.70753e-08
-4.36197e-07
-9.0641e-08
-4.45276e-07
-9.42266e-08
-4.54739e-07
-9.78292e-08
-4.64591e-07
-1.01445e-07
-4.74837e-07
-1.0507e-07
-4.85478e-07
-1.087e-07
-4.9652e-07
-1.12328e-07
-5.07965e-07
-1.15948e-07
-5.19816e-07
-1.19554e-07
-5.32076e-07
-1.23136e-07
-5.44746e-07
-1.26686e-07
-5.57829e-07
-1.30194e-07
-5.71323e-07
-1.33647e-07
-5.85231e-07
-1.37034e-07
-5.99549e-07
-1.40341e-07
-6.14278e-07
-1.43551e-07
-6.29412e-07
-1.46648e-07
-6.44949e-07
-1.49613e-07
-6.60882e-07
-1.52426e-07
-6.77204e-07
-1.55065e-07
-6.93905e-07
-1.57505e-07
-7.10975e-07
-1.59721e-07
-7.28399e-07
-1.61684e-07
-7.46162e-07
-1.63363e-07
-7.64245e-07
-1.64727e-07
-7.82627e-07
-1.6574e-07
-8.01282e-07
-1.66365e-07
-8.20183e-07
-1.66562e-07
-8.39296e-07
-1.66289e-07
-8.58585e-07
-1.65502e-07
-8.78008e-07
-1.64154e-07
-8.9752e-07
-1.62197e-07
-9.17069e-07
-1.5958e-07
-9.36597e-07
-1.56251e-07
-9.56041e-07
-1.52155e-07
-9.7533e-07
-1.47237e-07
-9.94387e-07
-1.41441e-07
-1.01313e-06
-1.34712e-07
-1.03146e-06
-1.26992e-07
-1.04928e-06
-1.18228e-07
-1.06649e-06
-1.08364e-07
-1.08296e-06
-9.73498e-08
-1.09857e-06
-8.51379e-08
-1.11319e-06
-7.16842e-08
-1.12667e-06
-5.69507e-08
-1.13886e-06
-4.09057e-08
-1.14961e-06
-2.35251e-08
-1.15873e-06
-4.79384e-09
-1.16607e-06
1.52888e-08
-1.17143e-06
3.67211e-08
-1.17464e-06
5.94809e-08
-1.17551e-06
8.35334e-08
-1.17383e-06
1.08829e-07
-1.16943e-06
1.353e-07
-1.16211e-06
1.62864e-07
-1.15168e-06
1.91416e-07
-1.13796e-06
2.20835e-07
-1.12078e-06
2.5095e-07
-1.09996e-06
2.81556e-07
-1.0753e-06
3.12503e-07
-1.04674e-06
3.4365e-07
-1.01424e-06
3.74786e-07
-9.77735e-07
4.05667e-07
-9.37142e-07
4.36043e-07
-8.92419e-07
4.65653e-07
-8.43571e-07
4.94227e-07
-7.90645e-07
5.21488e-07
-7.33737e-07
5.47158e-07
-6.72994e-07
5.70934e-07
-6.08399e-07
5.92606e-07
-5.40604e-07
6.11487e-07
-4.7142e-07
6.28301e-07
-4.28641e-07
6.43951e-07
-4.11645e-07
5.65503e-07
-2.09912e-06
5.97142e-07
-1.52591e-06
4.69189e-07
-1.23665e-06
4.86447e-07
-9.66943e-07
4.1882e-07
-9.03076e-07
4.32115e-07
-6.98165e-07
4.09353e-07
-5.58822e-07
4.15668e-07
-3.90728e-07
4.13155e-07
-2.36658e-07
-1.12663e-07
-3.32403e-09
-3.19074e-07
-6.65863e-09
-3.20194e-07
-9.99756e-09
-3.20799e-07
-1.33422e-08
-3.21604e-07
-1.66946e-08
-3.22696e-07
-2.00572e-08
-3.2414e-07
-2.34326e-08
-3.25945e-07
-2.68229e-08
-3.28095e-07
-3.02304e-08
-3.30574e-07
-3.36569e-08
-3.33373e-07
-3.71045e-08
-3.36493e-07
-4.05747e-08
-3.39933e-07
-4.40694e-08
-3.43698e-07
-4.75902e-08
-3.47788e-07
-5.11385e-08
-3.52208e-07
-5.47156e-08
-3.56961e-07
-5.83227e-08
-3.62049e-07
-6.19609e-08
-3.67477e-07
-6.56309e-08
-3.73248e-07
-6.93334e-08
-3.79366e-07
-7.30687e-08
-3.85836e-07
-7.6837e-08
-3.92661e-07
-8.06382e-08
-3.99845e-07
-8.44716e-08
-4.07394e-07
-8.83366e-08
-4.15312e-07
-9.22318e-08
-4.23603e-07
-9.61557e-08
-4.32273e-07
-1.00106e-07
-4.41325e-07
-1.04081e-07
-4.50764e-07
-1.08076e-07
-4.60596e-07
-1.12088e-07
-4.70824e-07
-1.16113e-07
-4.81453e-07
-1.20146e-07
-4.92487e-07
-1.2418e-07
-5.03931e-07
-1.28209e-07
-5.15787e-07
-1.32224e-07
-5.2806e-07
-1.36218e-07
-5.40752e-07
-1.40181e-07
-5.53866e-07
-1.44101e-07
-5.67404e-07
-1.47965e-07
-5.81366e-07
-1.51761e-07
-5.95753e-07
-1.55474e-07
-6.10565e-07
-1.59085e-07
-6.25801e-07
-1.62578e-07
-6.41457e-07
-1.65931e-07