/*--------------------------------*- C++ -*----------------------------------*\
| =========                 |                                                 |
| \\      /  F ield         | OpenFOAM: The Open Source CFD Toolbox           |
|  \\    /   O peration     | Version:  v2106                                 |
|   \\  /    A nd           | Website:  www.openfoam.com                      |
|    \\/     M anipulation  |                                                 |
\*---------------------------------------------------------------------------*/
FoamFile
{
    version     2.0;
    format      ascii;
    arch        "LSB;label=32;scalar=64";
    class       volVectorField;
    location    "0.4";
    object      U;
}
// * * * * * * * * * * * * * * * * * * * * * * * * * * * * * * * * * * * * * //

dimensions      [0 1 -1 0 0 0 0];

internalField   nonuniform List<vector> 
29678
(
(-0.0028207 -2.4494e-27 -9.77167e-07)
(-0.00283066 2.1614e-25 -3.17315e-06)
(-0.00283596 9.49946e-24 -5.72917e-06)
(-0.00284299 2.26666e-21 -8.29247e-06)
(-0.00285255 1.24451e-20 -1.08224e-05)
(-0.00286512 1.54482e-20 -1.33538e-05)
(-0.00288077 1.7211e-20 -1.58817e-05)
(-0.00289938 1.56571e-20 -1.84029e-05)
(-0.00292081 -2.89834e-20 -2.09213e-05)
(-0.00294502 9.34009e-21 -2.34427e-05)
(-0.00297198 -2.7265e-20 -2.5972e-05)
(-0.0030017 1.09159e-20 -2.85128e-05)
(-0.0030342 -2.30552e-20 -3.10676e-05)
(-0.0030695 1.35365e-20 -3.36383e-05)
(-0.0031076 -3.06765e-20 -3.62262e-05)
(-0.00314854 1.25892e-20 -3.88323e-05)
(-0.00319232 -2.96984e-20 -4.14576e-05)
(-0.00323898 -3.348e-20 -4.41028e-05)
(-0.00328852 1.65081e-20 -4.67683e-05)
(-0.00334098 -3.42707e-20 -4.94543e-05)
(-0.00339638 -3.86016e-20 -5.21608e-05)
(-0.00345473 -3.67543e-20 -5.48878e-05)
(-0.00351606 -1.628e-21 -5.76347e-05)
(-0.00358039 -2.20052e-21 -6.0401e-05)
(-0.00364774 -1.6728e-20 -6.31857e-05)
(-0.00371812 -2.77933e-21 -6.59875e-05)
(-0.00379156 -1.82764e-20 -6.88048e-05)
(-0.00386807 1.95209e-20 -7.16355e-05)
(-0.00394766 -3.84989e-20 -7.44774e-05)
(-0.00403034 -4.32818e-20 -7.73278e-05)
(-0.00411612 -4.21792e-20 -8.01832e-05)
(-0.004205 -1.92044e-21 -8.30396e-05)
(-0.00429698 -1.41308e-21 -8.58925e-05)
(-0.00439205 2.26579e-20 -8.87367e-05)
(-0.0044902 2.47375e-20 -9.15668e-05)
(-0.00459141 2.4997e-20 -9.43761e-05)
(-0.00469566 2.57064e-20 -9.71575e-05)
(-0.00480291 2.84634e-20 -9.9903e-05)
(-0.00491312 2.70963e-20 -0.000102603)
(-0.00502623 2.31299e-20 -0.000105249)
(-0.00514218 2.55593e-20 -0.000107828)
(-0.00526089 3.27657e-20 -0.000110329)
(-0.00538228 3.06778e-20 -0.000112738)
(-0.00550623 3.0397e-20 -0.000115041)
(-0.00563263 2.92712e-20 -0.000117222)
(-0.00576134 -2.79571e-20 -0.000119264)
(-0.0058922 2.53669e-20 -0.000121147)
(-0.00602503 3.28071e-20 -0.000122852)
(-0.00615964 3.17691e-20 -0.000124357)
(-0.0062958 3.63275e-20 -0.000125638)
(-0.00643326 3.40788e-20 -0.00012667)
(-0.00657175 3.64286e-20 -0.000127426)
(-0.00671096 3.70482e-20 -0.000127878)
(-0.00685056 3.36161e-20 -0.000127996)
(-0.00699019 2.57387e-21 -0.000127747)
(-0.00712943 3.97378e-20 -0.0001271)
(-0.00726786 3.87492e-20 -0.000126017)
(-0.007405 3.90867e-20 -0.000124464)
(-0.00754034 4.12593e-20 -0.000122402)
(-0.00767333 4.43705e-20 -0.000119793)
(-0.00780337 4.20901e-20 -0.000116597)
(-0.00792984 4.07608e-20 -0.000112775)
(-0.00805205 4.36769e-20 -0.000108285)
(-0.00816929 4.3213e-20 -0.000103087)
(-0.0082808 4.61559e-20 -9.71418e-05)
(-0.00838578 4.61841e-20 -9.04106e-05)
(-0.00848338 4.1145e-21 -8.28562e-05)
(-0.00857272 4.21076e-20 -7.44439e-05)
(-0.00865289 -9.06599e-20 -6.51419e-05)
(-0.00872293 3.57525e-20 -5.49221e-05)
(-0.00878187 -4.12485e-20 -4.37606e-05)
(-0.00882871 3.69279e-20 -3.16383e-05)
(-0.00886241 -4.2698e-20 -1.8545e-05)
(-0.00888193 4.44445e-20 -4.47659e-06)
(-0.00888627 -4.93346e-20 1.05745e-05)
(-0.00887432 -4.44929e-20 2.65928e-05)
(-0.00884509 4.16888e-20 4.35496e-05)
(-0.00879754 -3.94734e-20 6.14183e-05)
(-0.0087307 2.96883e-20 8.01555e-05)
(-0.00864363 -7.54795e-20 9.97065e-05)
(-0.00853544 3.93613e-20 0.000120004)
(-0.00840531 -3.74622e-20 0.000140969)
(-0.00825248 3.51773e-20 0.000162507)
(-0.00807633 -4.15625e-20 0.000184511)
(-0.00787629 -3.80696e-20 0.000206862)
(-0.00765195 3.19179e-20 0.000229425)
(-0.00740304 -3.49975e-20 0.000252053)
(-0.00712943 3.32494e-20 0.000274583)
(-0.00683118 -3.18042e-20 0.00029684)
(-0.00650855 2.6439e-20 0.000318638)
(-0.0061619 -6.26927e-20 0.000339772)
(-0.0057915 -3.15181e-22 0.000360056)
(-0.0053976 1.92226e-20 0.000378798)
(-0.00498081 -4.87865e-20 0.000395889)
(-0.00454219 1.66914e-20 0.000411158)
(-0.00408375 -3.57432e-20 0.000423979)
(-0.00361318 1.17266e-20 0.000433048)
(-0.00316267 -1.41245e-20 0.000427442)
(-0.00287219 1.70485e-20 0.000428703)
(-0.00279055 -9.26616e-21 0.000412189)
(-0.156546 -6.05602e-20 -0.000375799)
(0.00453794 7.98966e-22 -0.0889466)
(0.00568531 -2.9864e-20 -0.0087327)
(0.00565127 1.08204e-20 -0.0400376)
(0.00495115 -1.32875e-20 -0.00977051)
(0.00734907 -3.52249e-21 -0.0199464)
(0.00771964 -1.38293e-20 -0.00671019)
(0.00511578 1.23354e-20 -0.00776096)
(0.00361022 4.73545e-21 -0.00366986)
(0.000832372 -5.6737e-21 -0.00313073)
(-0.00281655 8.40315e-25 -2.12432e-06)
(-0.00282641 2.44746e-23 -6.41633e-06)
(-0.00283168 5.16449e-22 -1.07157e-05)
(-0.00283871 1.39534e-20 -1.49671e-05)
(-0.00284825 6.80569e-22 -1.92798e-05)
(-0.00286081 1.53652e-22 -2.36612e-05)
(-0.00287646 4.74049e-22 -2.80666e-05)
(-0.00289507 1.42129e-20 -3.24782e-05)
(-0.0029165 -1.31707e-20 -3.68972e-05)
(-0.0029407 -1.1347e-21 -4.13295e-05)
(-0.00296764 -1.23255e-20 -4.57806e-05)
(-0.00299734 1.11017e-20 -5.02548e-05)
(-0.00302982 -1.00677e-20 -5.47552e-05)
(-0.00306508 -1.06213e-21 -5.92844e-05)
(-0.00310316 -1.42251e-20 -6.38444e-05)
(-0.00314406 1.28684e-20 -6.84369e-05)
(-0.00318781 -1.22793e-20 -7.30634e-05)
(-0.00323443 -1.4133e-20 -7.7725e-05)
(-0.00328394 3.30785e-20 -8.24223e-05)
(-0.00333637 -1.53674e-20 -8.71559e-05)
(-0.00339173 -1.80873e-20 -9.19259e-05)
(-0.00345005 -1.66895e-20 -9.6732e-05)
(-0.00351134 -4.52879e-22 -0.000101573)
(-0.00357564 -1.81311e-20 -0.000106449)
(-0.00364296 -2.29095e-21 -0.000111358)
(-0.00371331 -3.47727e-20 -0.000116297)
(-0.00378672 1.67189e-20 -0.000121264)
(-0.00386321 3.75287e-20 -0.000126255)
(-0.00394278 -1.74535e-20 -0.000131266)
(-0.00402545 -2.00774e-20 -0.000136293)
(-0.00411123 -1.85128e-20 -0.00014133)
(-0.00420011 -1.00956e-21 -0.00014637)
(-0.0042921 -3.638e-20 -0.000151405)
(-0.00438719 -1.3452e-21 -0.000156426)
(-0.00448537 2.10445e-20 -0.000161425)
(-0.00458662 8.26818e-22 -0.000166389)
(-0.00469093 -1.93817e-22 -0.000171306)
(-0.00479824 9.71858e-22 -0.000176162)
(-0.00490854 -1.03127e-21 -0.000180943)
(-0.00502175 -2.05787e-21 -0.000185629)
(-0.00513782 1.01507e-21 -0.000190204)
(-0.00525668 2.81654e-20 -0.000194644)
(-0.00537823 1.21924e-21 -0.000198929)
(-0.00550238 9.98928e-22 -0.000203032)
(-0.005629 -2.01738e-21 -0.000206926)
(-0.00575796 -5.53756e-20 -0.000210582)
(-0.0058891 -7.18084e-21 -0.000213967)
(-0.00602225 1.05634e-21 -0.000217047)
(-0.00615722 2.65202e-20 -0.000219783)
(-0.00629378 1.25384e-21 -0.000222136)
(-0.00643169 5.07989e-21 -0.000224062)
(-0.00657067 3.23348e-20 -0.000225516)
(-0.00671042 3.16091e-20 -0.000226448)
(-0.00685062 -3.34808e-20 -0.000226806)
(-0.00699089 -9.83476e-22 -0.000226537)
(-0.00713084 3.45827e-20 -0.000225581)
(-0.00727004 -3.52484e-20 -0.00022388)
(-0.00740801 -2.26596e-21 -0.000221371)
(-0.00754424 1.59156e-21 -0.000217988)
(-0.00767819 3.77457e-20 -0.000213665)
(-0.00780927 1.50908e-21 -0.000208334)
(-0.00793683 -7.17528e-22 -0.000201924)
(-0.00806021 8.08893e-22 -0.000194367)
(-0.00817869 -8.81414e-22 -0.000185592)
(-0.00829149 3.44858e-21 -0.00017553)
(-0.00839783 4.04491e-20 -0.000164112)
(-0.00849686 2.01591e-21 -0.000151275)
(-0.00858768 -3.80137e-21 -0.000136956)
(-0.00866939 -8.4347e-20 -0.000121098)
(-0.00874101 -3.19243e-21 -0.00010365)
(-0.00880157 -3.33936e-22 -8.45677e-05)
(-0.00885005 -2.98045e-21 -6.38147e-05)
(-0.00888541 -8.04444e-20 -4.13658e-05)
(-0.0089066 -3.53133e-21 -1.72277e-05)
(-0.0089126 -3.72925e-21 8.643e-06)
(-0.00890228 -8.82533e-20 3.62288e-05)
(-0.00887463 -3.30206e-21 6.54635e-05)
(-0.00882861 -3.80128e-22 9.6324e-05)
(-0.00876322 -3.0129e-21 0.000128743)
(-0.0086775 -7.07464e-20 0.000162635)
(-0.00857053 -2.97891e-21 0.000197894)
(-0.00844148 -4.53606e-22 0.000234394)
(-0.00828957 -3.93544e-21 0.000271984)
(-0.00811414 -7.15743e-20 0.00031049)
(-0.00791461 -5.17432e-21 0.000349714)
(-0.00769055 -4.36566e-21 0.000389435)
(-0.00744166 -6.90423e-20 0.000429402)
(-0.00716777 -3.99781e-22 0.000469334)
(-0.00686891 -5.48889e-22 0.000508906)
(-0.00654529 -1.90452e-21 0.000547886)
(-0.00619699 -4.95595e-20 0.000585906)
(-0.00582466 -7.79329e-21 0.000622105)
(-0.00542879 1.04027e-21 0.000656344)
(-0.00500962 -4.71146e-20 0.000688568)
(-0.00456826 -3.34526e-21 0.000718941)
(-0.00410592 -4.02232e-20 0.000747417)
(-0.0036255 -6.54208e-21 0.000776169)
(-0.00316008 -2.98215e-20 0.000785613)
(-0.0028624 -7.41461e-22 0.000849145)
(-0.002638 2.4133e-20 0.000816866)
(-0.0653722 -1.14082e-19 0.000239973)
(-0.00902711 -2.49324e-20 -0.0835134)
(-0.0243353 -8.15603e-20 -0.00661206)
(-0.00461614 -1.07828e-21 -0.0356714)
(-0.00675899 2.20189e-20 -0.00760982)
(-0.000599228 -9.59341e-21 -0.0166893)
(-0.000135999 -8.15202e-21 -0.00518236)
(0.000733347 -5.46545e-21 -0.00622814)
(0.000608341 -2.08862e-20 -0.00302571)
(9.22517e-05 9.95496e-21 -0.00266344)
(-0.00281104 -8.40418e-26 -3.3611e-06)
(-0.00282096 -3.44591e-24 -1.01909e-05)
(-0.00282628 -7.28971e-23 -1.69923e-05)
(-0.0028333 -2.17734e-21 -2.36507e-05)
(-0.00284281 -1.12768e-20 -3.03875e-05)
(-0.00285534 -1.40978e-20 -3.72181e-05)
(-0.00287097 -1.58924e-20 -4.40867e-05)
(-0.00288956 -1.18965e-20 -5.09758e-05)
(-0.00291098 2.76285e-20 -5.78879e-05)
(-0.00293514 -8.67772e-21 -6.48288e-05)
(-0.00296206 2.63888e-20 -7.18037e-05)
(-0.00299173 -1.13897e-20 -7.8817e-05)
(-0.00302417 2.32492e-20 -8.58727e-05)
(-0.0030594 -1.269e-20 -9.29743e-05)
(-0.00309744 2.67452e-20 -0.000100125)
(-0.0031383 -1.04511e-20 -0.000107326)
(-0.003182 2.98649e-20 -0.000114581)
(-0.00322858 3.08284e-20 -0.00012189)
(-0.00327805 -1.15674e-20 -0.000129256)
(-0.00333043 3.15152e-20 -0.000136679)
(-0.00338574 3.43921e-20 -0.000144159)
(-0.00344401 3.17953e-20 -0.000151695)
(-0.00350527 1.32161e-21 -0.000159287)
(-0.00356952 1.23377e-21 -0.000166933)
(-0.0036368 1.42322e-20 -0.000174631)
(-0.00370712 1.73023e-21 -0.000182376)
(-0.0037805 1.74582e-20 -0.000190165)
(-0.00385696 -1.51762e-20 -0.000197993)
(-0.0039365 3.53781e-20 -0.000205853)
(-0.00401916 3.85901e-20 -0.000213737)
(-0.00410492 3.86571e-20 -0.000221638)
(-0.00419381 5.26335e-22 -0.000229543)
(-0.00428581 4.72448e-22 -0.000237443)
(-0.00438092 -2.05754e-20 -0.000245322)
(-0.00447914 -1.60408e-20 -0.000253166)
(-0.00458044 -2.39192e-20 -0.000260958)
(-0.00468481 -2.77445e-20 -0.000268678)
(-0.00479221 -2.45606e-20 -0.000276304)
(-0.00490261 -2.69421e-20 -0.000283813)
(-0.00501595 -2.81202e-20 -0.000291178)
(-0.00513217 -2.21839e-20 -0.000298369)
(-0.00525121 -2.56004e-20 -0.000305354)
(-0.00537297 -2.96349e-20 -0.000312097)
(-0.00549736 -3.07584e-20 -0.000318559)
(-0.00562426 -2.54155e-20 -0.000324698)
(-0.00575354 2.08742e-20 -0.000330468)
(-0.00588504 -2.32484e-20 -0.000335819)
(-0.0060186 -2.8617e-20 -0.000340696)
(-0.00615401 -3.2346e-20 -0.000345041)
(-0.00629108 -3.4789e-20 -0.000348793)
(-0.00642954 -2.95483e-20 -0.000351882)
(-0.00656914 -2.98221e-20 -0.000354239)
(-0.00670958 -3.68808e-20 -0.000355787)
(-0.00685052 -3.12543e-20 -0.000356445)
(-0.00699161 -1.01009e-21 -0.000356128)
(-0.00713245 -3.56614e-20 -0.000354747)
(-0.00727261 -3.8649e-20 -0.000352208)
(-0.00741163 -3.70475e-20 -0.000348414)
(-0.00754899 -3.54497e-20 -0.000343263)
(-0.00768415 -3.66309e-20 -0.000336651)
(-0.00781652 -3.93896e-20 -0.000328472)
(-0.00794547 -3.89406e-20 -0.000318617)
(-0.00807032 -3.78606e-20 -0.000306976)
(-0.00819035 -4.10568e-20 -0.000293439)
(-0.0083048 -3.86341e-20 -0.000277898)
(-0.00841287 -3.67516e-20 -0.000260246)
(-0.0085137 -2.86015e-21 -0.00024038)
(-0.00860641 -3.98625e-20 -0.000218202)
(-0.00869006 8.18518e-20 -0.000193622)
(-0.00876369 -3.26251e-20 -0.000166557)
(-0.00882631 3.82667e-20 -0.000136936)
(-0.00887689 -3.44483e-20 -0.000104698)
(-0.00891438 3.57536e-20 -6.98013e-05)
(-0.00893771 -4.13718e-20 -3.22498e-05)
(-0.00894583 4.5661e-20 8.02346e-06)
(-0.00893762 5.07104e-20 5.09979e-05)
(-0.00891204 -3.87247e-20 9.65804e-05)
(-0.00886802 3.63721e-20 0.000144737)
(-0.00880454 -2.66294e-20 0.000195368)
(-0.00872061 7.60111e-20 0.000248349)
(-0.00861529 -3.75985e-20 0.00030352)
(-0.00848772 3.4363e-20 0.000360691)
(-0.0083371 -3.14665e-20 0.000419633)
(-0.00816273 3.73169e-20 0.000480084)
(-0.007964 3.32526e-20 0.000541742)
(-0.00774046 -2.90582e-20 0.000604268)
(-0.00749175 3.1525e-20 0.000667282)
(-0.00721768 -3.13868e-20 0.000730353)
(-0.00691822 2.93672e-20 0.000793035)
(-0.00659368 -2.23143e-20 0.000855045)
(-0.00624448 5.5171e-20 0.000915366)
(-0.00587049 -2.93699e-21 0.000973696)
(-0.00547202 -1.73478e-20 0.00103025)
(-0.00505038 4.43971e-20 0.00108451)
(-0.00460688 -2.08951e-20 0.00113622)
(-0.00414273 3.47178e-20 0.00118441)
(-0.00366024 -1.41067e-20 0.00123488)
(-0.00319175 1.20941e-20 0.00124499)
(-0.00290839 -1.97244e-20 0.00136787)
(-0.00273436 2.99422e-21 0.00121334)
(-0.0491584 2.91061e-20 0.00109791)
(-0.00945871 -2.74963e-20 -0.0288129)
(-0.0260076 1.23206e-20 -0.00349975)
(-0.00448188 -7.66403e-21 -0.0228342)
(-0.0071607 2.57641e-20 -0.00601333)
(-0.00075819 6.93286e-21 -0.0132538)
(-0.000549275 2.53383e-22 -0.00547393)
(0.000386214 -9.84244e-21 -0.00664953)
(0.000320772 9.0785e-22 -0.00414257)
(-7.81037e-06 4.97867e-21 -0.00379087)
(-0.00280295 -1.37526e-24 -4.64769e-06)
(-0.0028129 -4.39051e-23 -1.41249e-05)
(-0.00281825 -9.08708e-22 -2.35948e-05)
(-0.00282526 -1.24853e-20 -3.28531e-05)
(-0.00283472 1.12684e-20 -4.21971e-05)
(-0.00284721 1.33598e-20 -5.16521e-05)
(-0.00286281 1.33238e-20 -6.11525e-05)
(-0.00288137 3.12633e-24 -7.06841e-05)
(-0.00290275 -9.70085e-21 -8.0253e-05)
(-0.00292688 1.21633e-20 -8.98663e-05)
(-0.00295375 -1.28769e-20 -9.95296e-05)
(-0.00298337 -1.39931e-21 -0.000109248)
(-0.00301576 -1.21231e-20 -0.000119027)
(-0.00305093 1.07808e-20 -0.000128869)
(-0.0030889 -1.15605e-20 -0.00013878)
(-0.0031297 -1.39805e-21 -0.000148762)
(-0.00317335 -1.15104e-20 -0.000158819)
(-0.00321986 -1.68819e-20 -0.000168952)
(-0.00326926 -1.86086e-20 -0.000179163)
(-0.00332157 -1.30264e-20 -0.000189453)
(-0.00337681 -1.41728e-20 -0.000199823)
(-0.00343502 -1.82048e-20 -0.000210272)
(-0.00349621 3.17463e-22 -0.000220798)
(-0.0035604 1.57298e-20 -0.0002314)
(-0.00362762 -1.46193e-20 -0.000242074)
(-0.00369788 3.30766e-20 -0.000252815)
(-0.00377121 -3.7364e-20 -0.000263617)
(-0.00384763 -1.83553e-20 -0.000274474)
(-0.00392714 -1.57107e-20 -0.000285377)
(-0.00400977 -1.86111e-20 -0.000296315)
(-0.00409552 -1.93285e-20 -0.000307276)
(-0.00418441 1.45176e-21 -0.000318247)
(-0.00427642 3.81331e-20 -0.00032921)
(-0.00437157 1.65897e-20 -0.000340147)
(-0.00446983 8.40544e-22 -0.000351038)
(-0.00457121 2.05489e-20 -0.000361859)
(-0.00467568 2.39169e-20 -0.000372583)
(-0.00478321 2.4525e-20 -0.00038318)
(-0.00489376 1.83156e-20 -0.000393617)
(-0.00500729 2.28078e-20 -0.000403858)
(-0.00512374 2.55354e-20 -0.000413862)
(-0.00524304 9.25158e-22 -0.000423585)
(-0.00536511 2.78063e-20 -0.000432977)
(-0.00548985 2.69599e-20 -0.000441984)
(-0.00561716 3.45885e-20 -0.000450549)
(-0.0057469 2.91484e-20 -0.000458608)
(-0.00587894 3.02763e-20 -0.000466092)
(-0.00601309 3.0316e-20 -0.000472926)
(-0.00614917 1.15277e-21 -0.000479029)
(-0.00628698 2.82723e-20 -0.000484317)
(-0.00642627 2.28223e-20 -0.000488695)
(-0.00656678 -1.66498e-22 -0.000492065)
(-0.00670822 4.09925e-21 -0.000494323)
(-0.00685027 6.81786e-20 -0.000495356)
(-0.00699257 3.42033e-22 -0.000495047)
(-0.00713472 1.71504e-21 -0.000493272)
(-0.00727632 7.02033e-20 -0.000489901)
(-0.00741688 3.81525e-20 -0.000484799)
(-0.00755591 3.64351e-20 -0.000477826)
(-0.00769287 1.56023e-21 -0.000468837)
(-0.00782716 3.7129e-20 -0.000457683)
(-0.00795817 3.80351e-20 -0.000444214)
(-0.0080852 4.18199e-20 -0.000428276)
(-0.00820755 3.81026e-20 -0.000409716)
(-0.00832444 3.66147e-20 -0.000388383)
(-0.00843508 1.69047e-21 -0.000364125)
(-0.0085386 3.32178e-21 -0.0003368)
(-0.00863411 4.19508e-20 -0.000306269)
(-0.00872067 1.52956e-20 -0.000272403)
(-0.0087973 3.21857e-20 -0.000235085)
(-0.00886299 -3.67886e-20 -0.000194214)
(-0.00891671 4.41468e-20 -0.000149703)
(-0.00895738 4.41012e-20 -0.000101486)
(-0.00898392 4.42057e-20 -4.9562e-05)
(-0.00899523 -3.43845e-20 6.15617e-06)
(-0.0089902 5.14634e-20 6.56478e-05)
(-0.00896772 4.41758e-20 0.000128799)
(-0.00892672 -3.86411e-20 0.000195561)
(-0.00886613 3.28602e-20 0.000265802)
(-0.00878492 -3.20844e-21 0.000339353)
(-0.00868212 4.22414e-20 0.000416002)
(-0.00855682 -4.21155e-20 0.000495486)
(-0.00840818 3.78731e-20 0.000577498)
(-0.00823545 3.9531e-20 0.000661676)
(-0.008038 -3.051e-20 0.000747611)
(-0.0078153 3.06405e-20 0.00083484)
(-0.00756697 3.95267e-20 0.000922848)
(-0.00729277 3.76481e-20 0.00101107)
(-0.00699263 -3.05012e-20 0.00109907)
(-0.00666707 2.08951e-20 0.00118607)
(-0.00631605 5.06889e-21 0.00127118)
(-0.00593963 7.59881e-21 0.00135455)
(-0.00553864 1.99991e-20 0.00143513)
(-0.0051141 7.09182e-21 0.00151226)
(-0.00466727 2.02309e-20 0.00158543)
(-0.00419906 2.17018e-21 0.00165313)
(-0.00371157 1.7215e-20 0.00172497)
(-0.00323667 1.76242e-20 0.00173874)
(-0.00295389 2.14404e-20 0.00192174)
(-0.00281012 -4.62211e-21 0.00167407)
(-0.0348677 6.16299e-21 0.00176954)
(-0.0122217 5.34696e-20 -0.0150337)
(-0.0228165 -4.65586e-20 -0.00170097)
(-0.00833091 2.56601e-21 -0.0157997)
(-0.0101214 -1.64644e-20 -0.00422554)
(-0.00439689 7.97989e-21 -0.0100774)
(-0.00374554 -2.45657e-20 -0.00404356)
(-0.00176373 1.40057e-20 -0.00527857)
(-0.00101488 8.86919e-21 -0.00326532)
(-0.00052887 -4.1459e-21 -0.0031306)
(-0.00279225 -6.1914e-25 -5.94717e-06)
(-0.00280219 -1.98357e-23 -1.80891e-05)
(-0.00280755 -3.94169e-22 -3.02503e-05)
(-0.00281454 2.06703e-22 -4.2147e-05)
(-0.00282397 1.04929e-21 -5.41422e-05)
(-0.00283642 8.01855e-22 -6.62669e-05)
(-0.00285197 3.03231e-22 -7.84424e-05)
(-0.00287048 -9.01476e-22 -9.06567e-05)
(-0.00289181 -1.79115e-22 -0.000102921)
(-0.00291588 3.52255e-22 -0.000115243)
(-0.00294269 -1.15346e-21 -0.000127633)
(-0.00297225 -5.50759e-22 -0.000140094)
(-0.00300456 -4.46371e-22 -0.000152633)
(-0.00303966 3.29422e-22 -0.000165256)
(-0.00307755 -2.08526e-21 -0.000177967)
(-0.00311827 -2.92018e-21 -0.00019077)
(-0.00316183 6.02489e-22 -0.000203669)
(-0.00320825 1.8873e-21 -0.000216667)
(-0.00325756 -1.61337e-21 -0.000229766)
(-0.00330978 -1.27601e-21 -0.000242968)
(-0.00336493 -7.50286e-22 -0.000256273)
(-0.00342305 1.88477e-21 -0.00026968)
(-0.00348415 2.47498e-21 -0.000283189)
(-0.00354826 -2.03432e-21 -0.000296795)
(-0.00361539 -4.53768e-22 -0.000310495)
(-0.00368558 2.15898e-22 -0.000324284)
(-0.00375885 -2.67305e-21 -0.000338153)
(-0.00383521 -1.91404e-23 -0.000352094)
(-0.00391467 -1.10766e-21 -0.000366096)
(-0.00399727 4.76797e-22 -0.000380146)
(-0.004083 1.17199e-21 -0.000394228)
(-0.00417188 4.2867e-21 -0.000408325)
(-0.00426391 5.89032e-21 -0.000422417)
(-0.0043591 -1.23325e-21 -0.00043648)
(-0.00445743 -3.63957e-21 -0.000450486)
(-0.0045589 9.37669e-22 -0.000464407)
(-0.0046635 5.37002e-21 -0.000478209)
(-0.00477119 2.59696e-21 -0.000491853)
(-0.00488194 -1.35784e-21 -0.000505298)
(-0.00499571 3.2255e-21 -0.000518497)
(-0.00511245 1.008e-21 -0.000531399)
(-0.0052321 -1.86393e-21 -0.000543947)
(-0.00535458 1.27557e-21 -0.000556078)
(-0.00547979 4.34107e-21 -0.000567724)
(-0.00560764 1.62672e-21 -0.000578811)
(-0.005738 2.78862e-21 -0.000589257)
(-0.00587072 3.14957e-21 -0.000598976)
(-0.00600566 1.26049e-21 -0.000607871)
(-0.00614262 2.30776e-21 -0.00061584)
(-0.00628141 1.17656e-21 -0.000622772)
(-0.00642179 -4.79031e-21 -0.000628549)
(-0.00656351 5.97743e-22 -0.000633046)
(-0.00670628 9.52251e-21 -0.000636126)
(-0.00684978 3.11915e-21 -0.000637647)
(-0.00699368 -4.1672e-21 -0.000637459)
(-0.00713758 6.76892e-21 -0.000635402)
(-0.00728106 3.21942e-21 -0.000631309)
(-0.00742368 3.19693e-21 -0.000625006)
(-0.00756492 1.54265e-21 -0.000616314)
(-0.00770426 2.00402e-21 -0.000605044)
(-0.00784111 1.76245e-21 -0.000591005)
(-0.00797484 1.682e-21 -0.000574003)
(-0.00810478 2.60446e-21 -0.000553838)
(-0.0082302 -1.29607e-21 -0.000530311)
(-0.00835035 -3.02579e-21 -0.000503225)
(-0.0084644 -2.83855e-21 -0.000472386)
(-0.0085715 2.11316e-21 -0.000437603)
(-0.00867075 2.23394e-22 -0.000398696)
(-0.00876118 -9.42754e-22 -0.000355496)
(-0.00884182 1.94857e-21 -0.000307848)
(-0.00891163 -1.67162e-21 -0.000255615)
(-0.00896955 2.93844e-21 -0.000198682)
(-0.00901448 -9.7891e-21 -0.000136957)
(-0.00904532 2.03635e-21 -7.04267e-05)
(-0.00906092 -1.13317e-21 1.01172e-06)
(-0.00906016 7.59884e-22 7.73446e-05)
(-0.00904187 3.37695e-21 0.000158446)
(-0.00900494 -1.42922e-21 0.000244246)
(-0.00894825 1.5106e-21 0.000334586)
(-0.00887073 -2.9926e-21 0.000429255)
(-0.00877135 2.91807e-21 0.000527986)
(-0.00864915 -2.45429e-21 0.00063045)
(-0.00850323 -7.00085e-22 0.000736253)
(-0.00833278 1.2478e-20 0.00084494)
(-0.00813712 -5.52468e-21 0.000955987)
(-0.00791565 -3.62591e-21 0.00106881)
(-0.00766795 3.84399e-21 0.00118275)
(-0.00739372 9.47532e-21 0.00129716)
(-0.00709299 -2.52353e-21 0.00141149)
(-0.00676601 6.50106e-22 0.00152421)
(-0.00641289 9.1816e-21 0.00163519)
(-0.00603365 -1.49894e-20 0.00174353)
(-0.00562911 7.93631e-21 0.00184818)
(-0.00520031 4.02295e-21 0.00194831)
(-0.0047485 7.16569e-22 0.00204313)
(-0.00427443 1.24914e-21 0.00213062)
(-0.00378046 -9.23121e-21 0.00222337)
(-0.0032977 9.43509e-22 0.00224088)
(-0.00301085 1.95614e-21 0.00247747)
(-0.00288527 5.46954e-20 0.00214291)
(-0.0283981 -1.27753e-19 0.00239967)
(-0.012186 -1.8443e-20 -0.00702722)
(-0.0194864 -1.67601e-20 0.000239342)
(-0.00809878 -1.02583e-20 -0.00974668)
(-0.0095527 2.28596e-20 -0.00244737)
(-0.00460416 -1.37551e-21 -0.00698232)
(-0.00392398 -5.64469e-21 -0.00293434)
(-0.00205255 3.13026e-22 -0.00408359)
(-0.00123479 -8.88951e-21 -0.00261859)
(-0.000601862 6.39147e-21 -0.00258377)
(-0.00277891 -5.01396e-25 -7.25007e-06)
(-0.00278882 -1.83779e-23 -2.20581e-05)
(-0.00279418 -4.15758e-22 -3.69046e-05)
(-0.00280115 1.28474e-21 -5.14359e-05)
(-0.00281055 2.89925e-21 -6.60835e-05)
(-0.00282295 1.11709e-21 -8.08827e-05)
(-0.00283845 -1.40073e-21 -9.57391e-05)
(-0.0028569 9.68851e-22 -0.000110641)
(-0.00287816 1.16445e-20 -0.000125604)
(-0.00290216 -9.44977e-22 -0.00014064)
(-0.0029289 1.24113e-20 -0.000155759)
(-0.00295837 1.15745e-21 -0.000170966)
(-0.0029906 1.44633e-20 -0.000186271)
(-0.0030256 1.78309e-21 -0.000201678)
(-0.00306339 1.06613e-20 -0.000217194)
(-0.003104 1.13383e-21 -0.000232824)
(-0.00314745 1.56004e-20 -0.000248572)
(-0.00319376 1.2565e-20 -0.000264443)
(-0.00324295 -1.23758e-20 -0.000280439)
(-0.00329506 1.6578e-20 -0.000296562)
(-0.0033501 1.48838e-20 -0.000312812)
(-0.0034081 1.67055e-20 -0.00032919)
(-0.00346909 1.75023e-21 -0.000345693)
(-0.00353309 1.50133e-20 -0.000362318)
(-0.00360012 1.33833e-21 -0.00037906)
(-0.00367022 1.33263e-20 -0.000395913)
(-0.0037434 -1.42683e-21 -0.000412868)
(-0.00381968 -1.22745e-20 -0.000429914)
(-0.00389909 2.21602e-20 -0.000447039)
(-0.00398163 1.96424e-20 -0.000464226)
(-0.00406734 1.67795e-20 -0.000481458)
(-0.00415621 2.002e-21 -0.000498713)
(-0.00424826 1.96353e-20 -0.000515967)
(-0.00434349 -2.71765e-21 -0.000533191)
(-0.0044419 1.63955e-21 -0.000550354)
(-0.00454348 3.21782e-22 -0.000567419)
(-0.00464823 1.11004e-21 -0.000584345)
(-0.00475611 -1.89366e-20 -0.000601088)
(-0.00486711 -1.05089e-21 -0.000617597)
(-0.00498118 2.01339e-21 -0.000633815)
(-0.00509828 -1.60268e-21 -0.00064968)
(-0.00521835 2.35784e-21 -0.000665124)
(-0.00534132 -1.77243e-21 -0.000680071)
(-0.00546711 2.61586e-21 -0.000694438)
(-0.00559562 2.76146e-21 -0.000708135)
(-0.00572673 2.28142e-20 -0.000721064)
(-0.00586031 -1.85833e-22 -0.000733118)
(-0.00599621 -2.00388e-21 -0.000744182)
(-0.00613426 2.63833e-21 -0.00075413)
(-0.00627426 3.24094e-21 -0.000762829)
(-0.00641599 -7.80915e-22 -0.000770135)
(-0.00655919 3.58183e-21 -0.000775892)
(-0.00670361 7.02391e-21 -0.000779938)
(-0.00684892 3.82071e-21 -0.000782098)
(-0.0069948 -3.73319e-20 -0.000782187)
(-0.00714086 2.07927e-21 -0.00078001)
(-0.0072867 -2.35371e-22 -0.000775363)
(-0.00743186 3.17895e-21 -0.000768032)
(-0.00757586 -1.40365e-21 -0.000757797)
(-0.00771816 3.33584e-21 -0.000744426)
(-0.00785819 2.3311e-21 -0.000727683)
(-0.00799532 1.87047e-21 -0.000707328)
(-0.00812887 -3.50298e-20 -0.000683115)
(-0.00825814 -3.95311e-21 -0.000654797)
(-0.00838235 9.23748e-22 -0.000622129)
(-0.00850068 7.0561e-21 -0.000584867)
(-0.00861227 3.29408e-21 -0.000542776)
(-0.0087162 8.79024e-21 -0.000495628)
(-0.0088115 3.34279e-20 -0.00044321)
(-0.00889717 -5.72006e-22 -0.000385326)
(-0.00897215 3.81728e-22 -0.000321801)
(-0.00903536 -1.46938e-21 -0.000252485)
(-0.00908567 4.10726e-20 -0.000177258)
(-0.00912193 -5.88375e-21 -9.60868e-05)
(-0.00914296 -2.30199e-21 -8.85794e-06)
(-0.0091476 4.20448e-20 8.44343e-05)
(-0.00913463 5.55533e-21 0.00018366)
(-0.00910287 3.46017e-22 0.000288724)
(-0.00905115 4.47745e-21 0.000399445)
(-0.00897834 4.17007e-20 0.000515576)
(-0.00888334 2.67071e-21 0.000636796)
(-0.00876512 6.71158e-21 0.00076271)
(-0.00862271 -1.65419e-21 0.000892843)
(-0.00845523 4.37485e-20 0.00102664)
(-0.00826193 3.81395e-21 0.00116347)
(-0.00804214 -4.85149e-21 0.00130261)
(-0.00779536 3.57724e-20 0.00144328)
(-0.00752122 1.01275e-20 0.0015848)
(-0.00721984 1.35141e-21 0.00172592)
(-0.00689121 -7.11037e-21 0.00186527)
(-0.00653535 2.4428e-20 0.00200267)
(-0.00615252 8.76246e-21 0.00213664)
(-0.00574345 -1.36399e-20 0.0022661)
(-0.00530915 2.008e-20 0.00238996)
(-0.00485086 5.42016e-21 0.00250716)
(-0.00436921 2.02213e-20 0.00261521)
(-0.00386691 -3.74934e-21 0.00272933)
(-0.00337331 1.41612e-20 0.00275115)
(-0.00307849 1.16372e-20 0.00304011)
(-0.00295896 5.12452e-22 0.0026273)
(-0.0242467 2.97724e-20 0.00302597)
(-0.0121575 1.2426e-19 -0.00332605)
(-0.0169032 -3.72613e-21 0.00139303)
(-0.00850185 -5.14897e-21 -0.00568344)
(-0.00962502 2.74032e-20 -0.000891672)
(-0.00550844 1.09901e-20 -0.00438173)
(-0.00472002 -8.25761e-21 -0.00155928)
(-0.00273784 -8.59864e-21 -0.00258862)
(-0.00168786 1.05742e-20 -0.00151051)
(-0.000748323 -3.38719e-22 -0.00156585)
(-0.00276294 -4.10634e-25 -8.55176e-06)
(-0.00277281 -1.31495e-23 -2.60208e-05)
(-0.00277815 -2.9548e-22 -4.35425e-05)
(-0.0027851 1.94509e-21 -6.06967e-05)
(-0.00279446 8.73558e-22 -7.79874e-05)
(-0.00280681 1.80204e-22 -9.5454e-05)
(-0.00282225 -6.45865e-22 -0.000112986)
(-0.00284063 7.11342e-22 -0.000130571)
(-0.00286181 -1.29095e-20 -0.000148228)
(-0.00288573 -1.18096e-20 -0.000165972)
(-0.00291237 -1.44212e-20 -0.000183814)
(-0.00294174 -1.54873e-21 -0.000201764)
(-0.00297385 -1.04989e-20 -0.000219828)
(-0.00300874 -1.70775e-20 -0.000238016)
(-0.00304641 -1.30106e-20 -0.000256334)
(-0.00308689 -6.45802e-22 -0.000274788)
(-0.00313021 -1.55184e-20 -0.000293384)
(-0.00317638 -1.77604e-20 -0.000312127)
(-0.00322544 -3.32501e-22 -0.000331019)
(-0.00327741 -1.38884e-20 -0.000350064)
(-0.00333231 -1.53461e-20 -0.000369262)
(-0.00339017 -1.50633e-20 -0.000388614)
(-0.00345102 2.45926e-21 -0.000408117)
(-0.00351489 -1.80341e-20 -0.000427767)
(-0.0035818 1.39641e-22 -0.000447561)
(-0.00365177 -1.94678e-20 -0.000467489)
(-0.00372484 2.86695e-20 -0.000487542)
(-0.00380103 6.09316e-21 -0.000507709)
(-0.00388036 -1.47744e-20 -0.000527974)
(-0.00396284 -1.85338e-20 -0.000548319)
(-0.00404851 -1.80582e-20 -0.000568724)
(-0.00413737 3.40791e-21 -0.000589163)
(-0.00422943 -1.80343e-20 -0.000609609)
(-0.0043247 -4.71059e-21 -0.000630029)
(-0.0044232 4.3162e-20 -0.000650386)
(-0.0045249 3.5528e-21 -0.000670638)
(-0.00462982 4.31435e-20 -0.000690737)
(-0.00473793 3.61245e-21 -0.000710632)
(-0.0048492 2.17507e-21 -0.000730263)
(-0.00496362 5.26229e-20 -0.000749564)
(-0.00508114 4.33287e-21 -0.000768463)
(-0.0052017 5.49643e-20 -0.00078688)
(-0.00532526 4.38871e-21 -0.000804726)
(-0.00545172 5.52504e-20 -0.000821906)
(-0.005581 5.10687e-21 -0.000838313)
(-0.005713 -2.99675e-20 -0.000853833)
(-0.0058476 5.77715e-20 -0.000868339)
(-0.00598464 4.92898e-21 -0.000881698)
(-0.00612396 5.6452e-20 -0.000893761)
(-0.00626539 4.77637e-21 -0.000904372)
(-0.00640871 5.73806e-20 -0.00091336)
(-0.00655369 6.75065e-20 -0.000920544)
(-0.00670006 6.68452e-20 -0.00092573)
(-0.00684752 -2.96343e-21 -0.000928712)
(-0.00699575 5.31293e-22 -0.000929271)
(-0.00714438 7.7012e-20 -0.000927177)
(-0.00729302 4.65673e-21 -0.000922189)
(-0.00744122 7.12744e-20 -0.00091405)
(-0.00758851 5.92393e-21 -0.000902499)
(-0.00773435 7.24777e-20 -0.00088726)
(-0.00787818 6.00446e-21 -0.000868052)
(-0.00801938 7.12265e-20 -0.000844585)
(-0.00815728 3.31109e-21 -0.000816566)
(-0.00829116 3.37688e-21 -0.000783697)
(-0.00842025 7.92498e-20 -0.000745683)
(-0.00854373 8.37645e-20 -0.000702229)
(-0.00866072 4.89023e-21 -0.000653048)
(-0.00877029 -2.71684e-21 -0.000597864)
(-0.00887147 -3.53956e-20 -0.000536415)
(-0.00896321 -4.43325e-21 -0.000468459)
(-0.00904446 2.92036e-21 -0.000393779)
(-0.00911407 1.36903e-22 -0.000312186)
(-0.0091709 -2.48423e-20 -0.000223526)
(-0.00921375 -3.98715e-21 -0.000127735)
(-0.00924139 6.24796e-22 -2.47021e-05)
(-0.00925265 -4.68356e-20 8.56222e-05)
(-0.00924616 -9.09849e-22 0.000203112)
(-0.00922073 1.8763e-21 0.000327637)
(-0.00917511 -5.40975e-21 0.000459004)
(-0.0091081 -3.78095e-20 0.000596933)
(-0.00901851 1.01522e-21 0.000741055)
(-0.00890523 7.07295e-22 0.00089091)
(-0.0087672 -1.30402e-20 0.00104594)
(-0.00860345 -2.47562e-20 0.0012055)
(-0.00841314 -1.08185e-22 0.00136884)
(-0.00819553 -1.85548e-20 0.00153511)
(-0.00795001 -3.52265e-20 0.00170343)
(-0.00767621 1.53233e-20 0.00187286)
(-0.00737387 1.9538e-21 0.00204135)
(-0.00704328 -1.42272e-20 0.00220852)
(-0.00668424 -1.65063e-20 0.00237326)
(-0.00629713 -1.10778e-20 0.00253396)