/*--------------------------------*- C++ -*----------------------------------*\
| =========                 |                                                 |
| \\      /  F ield         | OpenFOAM: The Open Source CFD Toolbox           |
|  \\    /   O peration     | Version:  v2106                                 |
|   \\  /    A nd           | Website:  www.openfoam.com                      |
|    \\/     M anipulation  |                                                 |
\*---------------------------------------------------------------------------*/
FoamFile
{
    version     2.0;
    format      ascii;
    arch        "LSB;label=32;scalar=64";
    class       volScalarField;
    location    "1.3";
    object      k;
}
// * * * * * * * * * * * * * * * * * * * * * * * * * * * * * * * * * * * * * //

dimensions      [0 2 -2 0 0 0 0];

internalField   nonuniform List<scalar> 
29678
(
0.000123275
0.000182779
0.000200593
0.000206851
0.000209613
0.000211053
0.000211893
0.000212423
0.000212782
0.000213041
0.000213245
0.000213416
0.000213568
0.00021371
0.000213845
0.000213977
0.000214104
0.000214227
0.000214345
0.000214457
0.000214563
0.000214661
0.000214752
0.000214835
0.00021491
0.000214977
0.000215035
0.000215086
0.000215129
0.000215165
0.000215197
0.000215225
0.000215253
0.000215284
0.00021532
0.000215363
0.000215409
0.000215459
0.000215514
0.000215575
0.000215642
0.000215715
0.000215795
0.000215882
0.000215976
0.000216076
0.000216182
0.000216293
0.000216408
0.000216528
0.000216649
0.000216773
0.000216896
0.000217018
0.000217138
0.000217254
0.000217364
0.000217468
0.000217564
0.000217651
0.00021773
0.0002178
0.000217854
0.000217889
0.000217904
0.000217895
0.000217865
0.000217816
0.000217753
0.000217682
0.000217603
0.000217521
0.000217439
0.000217358
0.00021728
0.000217213
0.00021716
0.000217125
0.000217115
0.000217136
0.000217193
0.000217291
0.000217418
0.00021758
0.000217822
0.000218146
0.000218559
0.000219042
0.000219555
0.000220104
0.000220703
0.000221312
0.000221945
0.000222602
0.000223618
0.000225238
0.000229881
0.000248086
0.000296469
0.000340622
0.000340132
0.000311601
0.000289871
0.00027443
0.000262271
0.000251798
0.000241877
0.000233074
0.000225279
0.00021963
0.000123275
0.00018281
0.000200627
0.000206897
0.000209672
0.000211128
0.000211985
0.000212533
0.000212908
0.000213183
0.000213399
0.000213581
0.000213741
0.000213889
0.000214031
0.000214167
0.000214299
0.000214426
0.000214548
0.000214663
0.000214773
0.000214874
0.000214968
0.000215052
0.000215128
0.000215193
0.00021525
0.000215297
0.000215337
0.00021537
0.000215399
0.000215428
0.000215459
0.000215498
0.000215542
0.000215589
0.000215643
0.000215704
0.000215773
0.00021585
0.000215937
0.000216032
0.000216137
0.00021625
0.000216373
0.000216504
0.000216642
0.000216787
0.000216939
0.000217095
0.000217255
0.000217417
0.000217581
0.000217744
0.000217905
0.000218062
0.000218214
0.000218354
0.00021848
0.000218591
0.000218684
0.00021876
0.000218817
0.000218854
0.000218871
0.000218867
0.000218839
0.000218789
0.000218717
0.000218625
0.000218491
0.000218265
0.000217987
0.000217698
0.00021741
0.000217124
0.00021684
0.000216597
0.000216412
0.000216295
0.000216254
0.000216296
0.000216429
0.000216662
0.000217001
0.000217449
0.000217988
0.000218594
0.000219264
0.000219995
0.000220791
0.00022162
0.000222533
0.000223448
0.000224682
0.000226566
0.000231375
0.000247435
0.000289191
0.000329132
0.000328556
0.000306981
0.000289438
0.000274648
0.000262574
0.000251376
0.000240799
0.000231982
0.000224977
0.000219811
0.000123286
0.00018285
0.000200671
0.000206956
0.000209751
0.000211227
0.000212103
0.000212669
0.000213062
0.000213351
0.000213577
0.000213765
0.00021393
0.000214083
0.000214228
0.000214369
0.000214506
0.000214638
0.000214764
0.000214885
0.000214999
0.000215106
0.000215204
0.000215294
0.000215373
0.000215441
0.0002155
0.000215548
0.000215587
0.00021562
0.000215648
0.000215676
0.000215708
0.000215746
0.00021579
0.000215839
0.000215895
0.000215959
0.000216032
0.000216113
0.000216204
0.000216304
0.000216413
0.000216532
0.000216659
0.000216795
0.000216939
0.000217089
0.000217246
0.000217408
0.000217573
0.000217741
0.00021791
0.000218078
0.000218244
0.000218407
0.000218561
0.000218702
0.000218829
0.00021894
0.000219034
0.000219111
0.000219168
0.000219207
0.000219225
0.000219222
0.000219196
0.000219149
0.000219077
0.000218942
0.000218733
0.000218466
0.000218157
0.000217822
0.000217489
0.000217182
0.000216911
0.000216688
0.000216523
0.00021642
0.00021639
0.000216441
0.000216583
0.000216824
0.000217169
0.000217619
0.000218171
0.000218823
0.000219554
0.000220344
0.000221203
0.000222101
0.00022309
0.000224083
0.000225358
0.000227186
0.000231452
0.000244591
0.000282145
0.000316906
0.000316621
0.000302604
0.000288335
0.000274877
0.000263939
0.000253346
0.000242573
0.000233153
0.000225611
0.0002201
0.000123293
0.000182897
0.000200728
0.000207031
0.000209847
0.000211343
0.000212237
0.000212816
0.000213217
0.00021351
0.000213736
0.000213922
0.000214087
0.000214241
0.000214389
0.000214531
0.000214668
0.000214801
0.000214927
0.000215049
0.000215164
0.000215272
0.000215373
0.000215465
0.00021555
0.000215624
0.000215688
0.000215743
0.00021579
0.000215829
0.000215865
0.0002159
0.000215937
0.000215978
0.000216023
0.000216074
0.000216131
0.000216196
0.000216269
0.000216351
0.000216442
0.000216543
0.000216653
0.000216771
0.000216899
0.000217035
0.000217179
0.000217329
0.000217485
0.000217647
0.000217811
0.000217978
0.000218146
0.000218312
0.000218476
0.000218635
0.000218787
0.000218925
0.000219047
0.000219154
0.000219244
0.000219316
0.000219369
0.000219402
0.000219414
0.000219406
0.000219376
0.000219324
0.000219242
0.000219093
0.000218873
0.000218581
0.00021824
0.000217884
0.000217564
0.000217282
0.000217043
0.000216858
0.000216733
0.000216676
0.000216692
0.000216789
0.000216973
0.00021725
0.000217625
0.0002181
0.000218671
0.000219319
0.00022004
0.000220829
0.000221692
0.000222618
0.000223631
0.000224695
0.000225981
0.00022774
0.00023174
0.000243063
0.000276665
0.00030683
0.000306699
0.000297983
0.000285706
0.000273057
0.000263644
0.000254239
0.000244123
0.000234772
0.000226875
0.000220742
0.000123292
0.000182949
0.000200793
0.000207119
0.000209959
0.000211474
0.000212379
0.000212964
0.000213364
0.000213651
0.00021387
0.000214053
0.000214215
0.000214366
0.00021451
0.00021465
0.000214785
0.000214915
0.000215041
0.000215161
0.000215276
0.000215384
0.000215486
0.000215581
0.000215668
0.000215748
0.00021582
0.000215884
0.000215941
0.000215991
0.000216038
0.000216084
0.000216129
0.000216175
0.000216225
0.00021628
0.000216342
0.000216411
0.000216488
0.000216574
0.000216668
0.000216772
0.000216885
0.000217006
0.000217136
0.000217275
0.000217421
0.000217574
0.000217732
0.000217895
0.000218061
0.000218229
0.000218398
0.000218565
0.000218728
0.000218887
0.000219037
0.000219173
0.000219294
0.000219398
0.000219485
0.000219553
0.000219601
0.000219629
0.000219636
0.000219622
0.000219585
0.000219515
0.000219386
0.00021919
0.000218942
0.000218654
0.000218341
0.00021803
0.000217747
0.0002175
0.000217296
0.000217144
0.000217054
0.000217031
0.000217079
0.0002172
0.000217401
0.000217687
0.000218061
0.000218524
0.000219075
0.000219716
0.000220444
0.000221243
0.000222119
0.000223072
0.000224109
0.000225254
0.000226513
0.000228258
0.000231886
0.000241302
0.00026935
0.000297767
0.000297922
0.000293287
0.00028222
0.000270283
0.000262406
0.00025447
0.000245184
0.000236055
0.000227883
0.000221271
0.000123281
0.000183004
0.000200868
0.000207222
0.000210087
0.000211618
0.000212531
0.000213113
0.000213504
0.000213781
0.000213993
0.000214169
0.000214326
0.000214472
0.000214613
0.000214749
0.000214882
0.00021501
0.000215134
0.000215254
0.000215369
0.000215478
0.000215581
0.000215678
0.000215769
0.000215853
0.00021593
0.000216001
0.000216066
0.000216127
0.000216183
0.000216237
0.000216291
0.000216347
0.000216407
0.00021647
0.00021654
0.000216616
0.0002167
0.000216791
0.000216892
0.000217001
0.000217119
0.000217245
0.000217381
0.000217524
0.000217674
0.000217831
0.000217994
0.00021816
0.00021833
0.000218501
0.000218672
0.000218841
0.000219007
0.000219166
0.000219316
0.000219452
0.000219572
0.000219675
0.000219761
0.000219828
0.000219874
0.0002199
0.000219903
0.000219884
0.000219835
0.000219732
0.000219574
0.000219373
0.000219135
0.000218868
0.000218584
0.000218303
0.000218044
0.00021782
0.00021764
0.000217515
0.000217453
0.000217458
0.000217529
0.000217667
0.00021788
0.000218171
0.000218544
0.000219001
0.000219544
0.000220174
0.000220893
0.000221695
0.000222581
0.000223558
0.000224614
0.000225822
0.000227015
0.000228771
0.000232041
0.000240337
0.000263491
0.000290047
0.000290404
0.000288614
0.000278295
0.000266488
0.000260012
0.00025366
0.000245545
0.000237046
0.000228858
0.000221856
0.000123261
0.000183063
0.000200953
0.000207339
0.000210231
0.000211776
0.000212689
0.000213262
0.000213642
0.00021391
0.000214114
0.000214283
0.000214434
0.000214576
0.000214713
0.000214846
0.000214977
0.000215104
0.000215228
0.000215347
0.000215463
0.000215573
0.000215678
0.000215778
0.000215872
0.000215961
0.000216043
0.000216121
0.000216193
0.000216262
0.000216328
0.000216392
0.000216456
0.000216522
0.00021659
0.000216663
0.000216742
0.000216826
0.000216918
0.000217018
0.000217126
0.000217242
0.000217367
0.000217501
0.000217642
0.000217792
0.000217948
0.000218111
0.000218279
0.00021845
0.000218625
0.0002188
0.000218975
0.000219147
0.000219315
0.000219477
0.000219627
0.000219762
0.000219882
0.000219986
0.000220071
0.000220138
0.000220185
0.00022021
0.000220213
0.000220188
0.000220115
0.000219995
0.000219834
0.000219638
0.000219412
0.000219165
0.000218907
0.000218653
0.000218418
0.000218215
0.000218056
0.000217952
0.000217913
0.000217937
0.000218022
0.00021817
0.000218389
0.000218683
0.000219054
0.000219505
0.000220037
0.000220655
0.000221362
0.000222162
0.000223058
0.000224061
0.000225121
0.000226383
0.000227493
0.000229275
0.000232164
0.000239664
0.000258652
0.000283255
0.000283748
0.000283612
0.000273995
0.000261856
0.00025662
0.000251871
0.000245102
0.000237556
0.000229626
0.000222407
0.000123229
0.000183125
0.000201047
0.00020747
0.000210389
0.000211943
0.00021285
0.000213414
0.000213786
0.000214044
0.000214239
0.000214401
0.000214547
0.000214684
0.000214818
0.000214949
0.000215078
0.000215204
0.000215327
0.000215447
0.000215563
0.000215676
0.000215783
0.000215886
0.000215985
0.000216078
0.000216166
0.000216251
0.000216331
0.000216408
0.000216483
0.000216556
0.000216631
0.000216707
0.000216786
0.000216869
0.000216957
0.000217052
0.000217153
0.000217262
0.000217379
0.000217504
0.000217637
0.000217779
0.000217929
0.000218086
0.00021825
0.000218419
0.000218594
0.000218772
0.000218953
0.000219133
0.000219313
0.00021949
0.000219661
0.000219825
0.000219975
0.000220111
0.000220231
0.000220334
0.000220421
0.000220488
0.000220536
0.000220562
0.000220566
0.000220532
0.00022045
0.000220329
0.000220171
0.000219982
0.000219767
0.000219535
0.000219297
0.000219063
0.000218847
0.000218663
0.000218522
0.000218438
0.000218416
0.000218453
0.000218548
0.000218703
0.000218925
0.000219219
0.000219588
0.000220033
0.000220558
0.000221165
0.000221861
0.000222649
0.000223536
0.000224556
0.000225594
0.000226907
0.000227914
0.000229745
0.000232198
0.00023902
0.000255197
0.000277848
0.000278289
0.000278213
0.000269624
0.000256589
0.000252369
0.000249076
0.000243731
0.000237452
0.00023014
0.000222933
0.000123187
0.00018319
0.000201152
0.000207615
0.000210557
0.000212113
0.000213015
0.000213574
0.000213938
0.000214186
0.000214372
0.000214527
0.000214667
0.0002148
0.000214931
0.00021506
0.000215187
0.000215312
0.000215436
0.000215556
0.000215674
0.000215788
0.000215898
0.000216005
0.000216108
0.000216206
0.000216301
0.000216392
0.000216481
0.000216566
0.000216651
0.000216735
0.00021682
0.000216906
0.000216996
0.000217091
0.00021719
0.000217295
0.000217407
0.000217526
0.000217654
0.000217789
0.000217932
0.000218084
0.000218243
0.000218409
0.000218582
0.000218761
0.000218944
0.00021913
0.000219318
0.000219506
0.000219692
0.000219875
0.000220051
0.000220216
0.000220367
0.000220503
0.000220624
0.000220728
0.000220814
0.000220882
0.000220931
0.00022096
0.000220964
0.00022093
0.000220848
0.000220731
0.00022058
0.000220399
0.000220195
0.000219976
0.000219751
0.000219532
0.000219332
0.000219162
0.000219036
0.000218966
0.000218956
0.000219002
0.000219103
0.000219262
0.000219486
0.000219779
0.000220145
0.000220585
0.000221102
0.0002217
0.000222385
0.000223162
0.000224034
0.00022505
0.00022604
0.000227347
0.00022825
0.000230152
0.000232285
0.000238571
0.000253563
0.000273608
0.000274011
0.000272925
0.000265456
0.000251148
0.000247772
0.000245575
0.000241544
0.000236595
0.000230257
0.000223383
0.000123134
0.000183259
0.000201265
0.00020777
0.00021073
0.000212285
0.000213187
0.000213745
0.000214097
0.000214334
0.000214512
0.00021466
0.000214795
0.000214925
0.000215052
0.000215179
0.000215305
0.00021543
0.000215553
0.000215675
0.000215794
0.000215911
0.000216025
0.000216135
0.000216243
0.000216347
0.000216449
0.000216547
0.000216644
0.000216739
0.000216833
0.000216928
0.000217024
0.000217122
0.000217223
0.000217329
0.00021744
0.000217558
0.000217681
0.000217813
0.000217952
0.000218099
0.000218254
0.000218416
0.000218587
0.000218764
0.000218948
0.000219137
0.000219331
0.000219527
0.000219724
0.000219921
0.000220116
0.000220306
0.000220486
0.000220653
0.000220806
0.000220943
0.000221064
0.000221169
0.000221256
0.000221326
0.000221376
0.000221407
0.000221415
0.000221387
0.000221313
0.000221202
0.000221059
0.000220888
0.000220694
0.000220486
0.000220273
0.000220065
0.000219875
0.000219716
0.000219601
0.00021954
0.000219535
0.000219586
0.000219689
0.00021985
0.000220073
0.000220363
0.000220724
0.000221158
0.000221667
0.000222256
0.00022293
0.000223695
0.000224549
0.000225557
0.00022649
0.000227748
0.000228582
0.000230493
0.000232475
0.000238394
0.00025322
0.000269611
0.000270446
0.000268398
0.000262005
0.000246574
0.000243574
0.00024202
0.000238991
0.000235179
0.000229931
0.000223678
0.00012307
0.000183332
0.000201388
0.000207932
0.000210898
0.000212462
0.000213373
0.000213923
0.000214263
0.00021449
0.000214659
0.000214801
0.000214931
0.000215057
0.000215183
0.000215308
0.000215433
0.000215557
0.000215681
0.000215804
0.000215925
0.000216045
0.000216162
0.000216277
0.00021639
0.0002165
0.000216609
0.000216715
0.000216821
0.000216925
0.00021703
0.000217136
0.000217243
0.000217353
0.000217467
0.000217586
0.00021771
0.00021784
0.000217977
0.000218122
0.000218274
0.000218434
0.000218603
0.000218779
0.000218962
0.000219153
0.000219349
0.000219551
0.000219757
0.000219965
0.000220174
0.000220381
0.000220586
0.000220783
0.000220967
0.000221136
0.000221291
0.00022143
0.000221553
0.00022166
0.000221748
0.000221819
0.000221872
0.000221906
0.00022192
0.000221901
0.000221844
0.000221742
0.000221608
0.000221447
0.000221265
0.000221068
0.000220865
0.000220666
0.000220483
0.000220331
0.000220221
0.000220162
0.000220158
0.000220208
0.00022031
0.000220468
0.000220688
0.000220974
0.000221328
0.000221754
0.000222253
0.000222831
0.000223492
0.000224243
0.000225075
0.000226066
0.00022693
0.000228128
0.000228911
0.00023083
0.000232741
0.000238366
0.000253436
0.000266354
0.000267771
0.000264836
0.000259311
0.000243073
0.000240008
0.000238711
0.00023633
0.000233356
0.000229118
0.000223686
0.000122995
0.000183407
0.000201518
0.000208098
0.000211071
0.000212647
0.000213568
0.000214107
0.000214434
0.000214651
0.000214812
0.000214949
0.000215075
0.000215198
0.000215321
0.000215445
0.000215569
0.000215694
0.000215819
0.000215943
0.000216067
0.000216189
0.00021631
0.00021643
0.000216549
0.000216666
0.000216782
0.000216897
0.000217011
0.000217126
0.000217242
0.000217359
0.000217479
0.000217602
0.000217729
0.000217861
0.000218
0.000218144
0.000218296
0.000218455
0.000218622
0.000218798
0.000218981
0.000219172
0.000219371
0.000219577
0.000219788
0.000220005
0.000220225
0.000220447
0.00022067
0.000220891
0.000221105
0.000221307
0.000221494
0.000221667
0.000221824
0.000221966
0.000222091
0.0002222
0.000222291
0.000222364
0.00022242
0.000222457
0.000222476
0.00022247
0.000222429
0.000222351
0.00022223
0.00022208
0.000221908
0.000221722
0.000221529
0.000221338
0.000221162
0.000221013
0.000220903
0.000220842
0.000220833
0.000220876
0.000220973
0.000221125
0.000221338
0.000221615
0.000221959
0.000222374
0.000222862
0.000223426
0.000224072
0.000224806
0.000225609
0.000226566
0.000227346
0.000228475
0.000229232
0.000231124
0.000233076
0.000238484
0.000253894
0.000263218
0.000265394
0.000262372
0.000257422
0.000240676
0.000237232
0.000235831
0.00023381
0.000231424
0.000228074
0.000223507
0.000122908
0.000183486
0.000201653
0.000208259
0.000211253
0.000212844
0.000213768
0.000214295
0.000214611
0.000214818
0.000214972
0.000215104
0.000215226
0.000215347
0.000215468
0.000215591
0.000215715
0.00021584
0.000215966
0.000216092
0.000216218
0.000216344
0.00021647
0.000216595
0.00021672
0.000216844
0.000216968
0.000217092
0.000217216
0.000217342
0.000217469
0.000217598
0.000217731
0.000217868
0.000218009
0.000218157
0.00021831
0.00021847
0.000218638
0.000218814
0.000218998
0.00021919
0.000219391
0.000219599
0.000219815
0.000220038
0.000220268
0.000220501
0.000220739
0.000220978
0.000221217
0.00022145
0.00022167
0.000221876
0.000222067
0.000222244
0.000222405
0.00022255
0.000222678
0.000222789
0.000222883
0.00022296
0.000223019
0.000223061
0.000223084
0.000223089
0.000223066
0.00022301
0.000222918
0.000222787
0.000222627
0.000222451
0.000222268
0.000222086
0.000221915
0.000221767
0.000221655
0.000221587
0.000221568
0.0002216
0.000221685
0.000221827
0.000222029
0.000222293
0.000222624
0.000223024
0.000223496
0.000224044
0.000224672
0.000225385
0.000226148
0.00022705
0.000227738
0.000228786
0.000229553
0.00023135
0.000233506
0.000238726
0.000254438
0.000261005
0.000263649
0.000260984
0.000256528
0.000239431
0.000235428
0.000233634
0.000231742
0.000229684
0.000227017
0.000223282
0.000122811
0.000183568
0.000201793
0.000208409
0.00021144
0.000213056
0.000213972
0.000214488
0.000214792
0.00021499
0.000215138
0.000215265
0.000215385
0.000215503
0.000215623
0.000215745
0.000215869
0.000215995
0.000216122
0.000216251
0.00021638
0.00021651
0.000216641
0.000216771
0.000216903
0.000217034
0.000217167
0.0002173
0.000217435
0.000217572
0.000217712
0.000217854
0.000218001
0.000218152
0.000218309
0.000218472
0.000218642
0.00021882
0.000219006
0.0002192
0.000219402
0.000219614
0.000219834
0.000220062
0.000220298
0.000220542
0.000220791
0.000221045
0.000221303
0.000221562
0.000221814
0.000222053
0.000222278
0.00022249
0.000222686
0.000222868
0.000223033
0.000223182
0.000223313
0.000223428
0.000223526
0.000223607
0.000223671
0.000223717
0.000223746
0.000223757
0.000223751
0.000223717
0.000223651
0.000223554
0.000223422
0.000223259
0.000223084
0.000222909
0.000222744
0.000222598
0.000222481
0.000222404
0.000222372
0.000222389
0.000222458
0.000222584
0.000222768
0.000223015
0.000223327
0.000223709
0.000224162
0.00022469
0.000225298
0.000225985
0.000226695
0.000227517
0.000228116
0.000229067
0.000229883
0.000231499
0.000234018
0.000239061
0.000255049
0.000259998
0.000263028
0.000260351
0.000256712
0.000239228
0.000234591
0.000232323
0.000230416
0.000228469
0.000226212
0.000223121
0.000122702
0.000183654
0.00020194
0.000208571
0.000211633
0.000213273
0.00021418
0.000214683
0.000214977
0.000215167
0.00021531
0.000215433
0.000215549
0.000215666
0.000215785
0.000215907
0.000216031
0.000216159
0.000216288
0.000216419
0.000216552
0.000216686
0.000216822
0.000216959
0.000217098
0.000217238
0.000217379
0.000217523
0.000217669
0.000217818
0.00021797
0.000218127
0.000218289
0.000218456
0.000218629
0.00021881
0.000218998
0.000219195
0.0002194
0.000219614
0.000219838
0.000220071
0.000220313
0.000220564
0.000220823
0.000221089
0.000221362
0.00022164
0.00022192
0.000222192
0.000222452
0.000222698
0.00022293
0.000223148
0.00022335
0.000223537
0.000223707
0.000223861
0.000223997
0.000224117
0.00022422
0.000224306
0.000224375
0.000224427
0.000224462
0.00022448
0.000224483
0.00022447
0.00022443
0.000224362
0.000224267
0.000224141
0.000223982
0.000223814
0.000223652
0.000223506
0.000223386
0.000223299
0.000223252
0.000223251
0.0002233
0.000223403
0.000223565
0.000223789
0.000224078
0.000224436
0.000224867
0.000225373
0.000225958
0.000226612
0.000227256
0.000227993
0.00022851
0.000229361
0.000230189
0.000231644
0.00023453
0.000239471
0.000255667
0.000259724
0.000263414
0.000260095
0.000257459
0.000240008
0.000234516
0.000231798
0.000229771
0.000227768
0.000225667
0.000223058
0.000122582
0.000183744
0.000202095
0.000208744
0.000211829
0.000213493
0.00021439
0.000214882
0.000215166
0.000215349
0.000215486
0.000215606
0.000215721
0.000215836
0.000215954
0.000216076
0.000216202
0.000216331
0.000216462
0.000216597
0.000216734
0.000216873
0.000217015
0.000217159
0.000217305
0.000217453
0.000217605
0.000217759
0.000217917
0.000218079
0.000218246
0.000218418
0.000218595
0.000218779
0.000218971
0.00021917
0.000219378
0.000219596
0.000219823
0.00022006
0.000220307
0.000220564
0.000220831
0.000221107
0.000221393
0.000221686
0.000221986
0.000222289
0.000222582
0.000222862
0.00022313
0.000223384
0.000223624
0.000223849
0.000224058
0.000224251
0.000224428
0.000224588
0.00022473
0.000224857
0.000224966
0.000225059
0.000225134
0.000225192
0.000225234
0.00022526
0.000225271
0.000225267
0.000225251
0.000225213
0.00022515
0.000225062
0.000224949
0.000224801
0.000224643
0.000224496
0.000224371
0.000224275
0.000224213
0.000224193
0.000224218
0.000224296
0.00022443
0.000224625
0.000224885
0.000225214
0.000225618
0.0002261
0.000226657
0.00022727
0.000227841
0.000228508
0.000228948
0.000229715
0.000230477
0.000232023
0.000235154
0.000239969
0.000256322
0.000259907
0.000264242
0.000260617
0.000258508
0.000241357
0.000235081
0.000231875
0.000229637
0.000227403
0.000224932
0.000223028
0.000122451
0.000183837
0.000202251
0.000208929
0.000212033
0.000213716
0.000214604
0.000215084
0.000215359
0.000215535
0.000215668
0.000215784
0.000215898
0.000216012
0.000216131
0.000216253
0.00021638
0.000216511
0.000216646
0.000216784
0.000216925
0.00021707
0.000217218
0.000217369
0.000217524
0.000217682
0.000217844
0.00021801
0.000218181
0.000218356
0.000218538
0.000218726
0.000218921
0.000219123
0.000219334
0.000219555
0.000219785
0.000220025
0.000220276
0.000220538
0.000220812
0.000221096
0.000221391
0.000221697
0.000222012
0.000222336
0.000222661
0.000222976
0.000223278
0.000223568
0.000223845
0.000224108
0.000224356
0.00022459
0.000224807
0.000225009
0.000225194
0.000225362
0.000225513
0.000225648
0.000225766
0.000225867
0.00022595
0.000226016
0.000226065
0.000226099
0.000226118
0.000226123
0.000226118
0.000226103
0.000226071
0.000226017
0.000225942
0.000225846
0.000225717
0.000225574
0.000225442
0.000225335
0.000225258
0.000225218
0.00022522
0.000225269
0.000225371
0.000225532
0.000225757
0.000226053
0.000226425
0.000226876
0.000227397
0.000227956
0.000228457
0.000229083
0.000229468
0.000230257
0.000231053
0.000232749
0.000235869
0.000240595
0.000256198
0.000260222
0.000264876
0.000262346
0.000259822
0.000243067
0.000236089
0.000232422
0.000229852
0.000226989
0.000224089
0.000222202
0.000122309
0.000183929
0.000202379
0.000209121
0.000212256
0.000213942
0.000214819
0.000215288
0.000215554
0.000215724
0.000215854
0.000215968
0.00021608
0.000216195
0.000216314
0.000216437
0.000216566
0.000216699
0.000216837
0.00021698
0.000217126
0.000217277
0.000217432
0.000217591
0.000217754
0.000217923
0.000218096
0.000218275
0.000218459
0.00021865
0.000218848
0.000219053
0.000219267
0.000219489
0.000219722
0.000219964
0.000220218
0.000220484
0.000220762
0.000221052
0.000221355
0.00022167
0.000221998
0.000222336
0.000222685
0.000223032
0.000223368
0.000223693
0.000224006
0.000224306
0.000224593
0.000224866
0.000225125
0.000225369
0.000225597
0.000225809
0.000226005
0.000226184
0.000226346
0.000226492
0.000226621
0.000226732
0.000226826
0.000226902
0.00022696
0.000227003
0.00022703
0.000227044
0.000227047
0.000227042
0.000227029
0.000227008
0.000226965
0.000226906
0.000226828
0.000226725
0.0002266
0.000226483
0.00022639
0.00022633
0.000226308
0.000226328
0.000226397
0.00022652
0.000226706
0.000226962
0.000227295
0.000227706
0.000228175
0.000228673
0.000229122
0.000229741
0.000230119
0.000230999
0.000231784
0.000233707
0.00023657
0.000241473
0.000254173
0.000260013
0.000265112
0.000264644
0.000261081
0.000244975
0.000237304
0.000233302
0.000230034
0.000226784
0.000223419
0.000221301
0.000122154
0.000184021
0.000202496
0.00020932
0.000212489
0.00021417
0.000215036
0.000215494
0.000215752
0.000215917
0.000216044
0.000216157
0.000216268
0.000216383
0.000216503
0.000216628
0.000216759
0.000216895
0.000217037
0.000217184
0.000217336
0.000217493
0.000217656
0.000217824
0.000217997
0.000218176
0.000218362
0.000218554
0.000218753
0.00021896
0.000219175
0.000219399
0.000219633
0.000219878
0.000220133
0.000220401
0.000220681
0.000220975
0.000221283
0.000221604
0.00022194
0.00022229
0.000222653
0.000223027
0.000223394
0.000223752
0.000224098
0.000224434
0.000224758
0.000225069
0.000225368
0.000225654
0.000225926
0.000226183
0.000226425
0.000226652
0.000226862
0.000227054
0.000227231
0.000227392
0.000227535
0.00022766
0.000227766
0.000227854
0.000227924
0.000227976
0.000228013
0.000228036
0.000228048
0.000228051
0.000228046
0.000228039
0.000228027
0.000227997
0.000227951
0.000227889
0.000227808
0.000227709
0.00022761
0.000227531
0.000227484
0.000227476
0.000227511
0.000227597
0.00022774
0.000227949
0.000228233
0.000228586
0.000228987
0.000229432
0.000229847
0.000230484
0.000230878
0.000231862
0.000232607
0.00023476
0.000237306
0.000242557
0.000252409
0.000259192
0.000263605
0.00026667
0.00026249
0.000246782
0.000238592
0.000234357
0.000230546
0.00022684
0.000223115
0.000220689
0.000121988
0.000184114
0.000202621
0.000209523
0.000212726
0.0002144
0.000215254
0.000215702
0.000215953
0.000216114
0.000216238
0.00021635
0.000216461
0.000216577
0.000216698
0.000216825
0.000216959
0.000217099
0.000217245
0.000217397
0.000217555
0.000217719
0.00021789
0.000218067
0.000218251
0.000218442
0.000218641
0.000218847
0.000219062
0.000219287
0.000219521
0.000219765
0.000220021
0.00022029
0.000220571
0.000220866
0.000221175
0.0002215
0.000221841
0.000222198
0.00022257
0.000222958
0.000223354
0.000223741
0.000224119
0.000224487
0.000224845
0.000225192
0.000225529
0.000225854
0.000226168
0.000226469
0.000226757
0.000227031
0.000227291
0.000227535
0.000227762
0.000227973
0.000228169
0.000228348
0.000228509
0.000228651
0.000228774
0.000228876
0.00022896
0.000229025
0.000229073
0.000229106
0.000229127
0.000229138
0.00022914
0.000229138
0.000229135
0.000229133
0.000229112
0.000229074
0.000229022
0.000228954
0.000228878
0.000228804
0.000228743
0.000228709
0.000228712
0.00022876
0.000228859
0.000229014
0.00022923
0.000229506
0.000229838
0.000230241
0.000230636
0.000231301
0.000231711
0.000232797
0.000233498
0.000235871
0.000238113
0.000243794
0.000254656
0.000260398
0.000262356
0.000268379
0.000264491
0.000248275
0.00023987
0.000235309
0.000231551
0.000227203
0.000223425
0.000220593
0.000121811
0.00018421
0.000202756
0.000209728
0.000212966
0.00021463
0.000215472
0.000215911
0.000216156
0.000216313
0.000216435
0.000216547
0.000216659
0.000216775
0.000216898
0.000217028
0.000217165
0.000217309
0.00021746
0.000217618
0.000217783
0.000217955
0.000218134
0.000218322
0.000218517
0.000218721
0.000218933
0.000219155
0.000219387
0.00021963
0.000219885
0.000220152
0.000220432
0.000220726
0.000221035
0.00022136
0.000221702
0.000222061
0.000222438
0.000222834
0.000223246
0.00022366
0.000224065
0.000224462
0.00022485
0.000225229
0.0002256
0.000225961
0.000226313
0.000226655
0.000226986
0.000227307
0.000227615
0.00022791
0.000228191
0.000228457
0.000228706
0.00022894
0.00022916
0.000229362
0.000229546
0.000229709
0.000229852
0.000229973
0.000230074
0.000230155
0.000230216
0.000230261
0.000230292
0.000230311
0.00023032
0.000230322
0.000230322
0.000230323
0.000230325
0.000230305
0.000230268
0.000230217
0.000230156
0.000230092
0.000230033
0.00022999
0.000229972
0.000229985
0.000230036
0.000230128
0.000230267
0.000230467
0.000230738
0.000231105
0.000231488
0.000232181
0.000232609
0.000233796
0.000234462
0.000237046
0.000239026
0.000245272
0.000257228
0.000261352
0.000262999
0.000270217
0.000266796
0.000248659
0.000241029
0.000236039
0.000232575
0.000227826
0.000224143
0.000220946
0.000121622
0.00018431
0.000202904
0.000209936
0.000213206
0.000214862
0.000215692
0.000216121
0.00021636
0.000216515
0.000216636
0.000216748
0.00021686
0.000216979
0.000217104
0.000217237
0.000217377
0.000217526
0.000217682
0.000217846
0.000218019
0.000218199
0.000218388
0.000218587
0.000218794
0.000219011
0.000219239
0.000219478
0.000219728
0.000219991
0.000220268
0.000220559
0.000220865
0.000221188
0.000221528
0.000221886
0.000222263
0.00022266
0.000223077
0.00022351
0.000223939
0.00022436
0.000224774
0.00022518
0.00022558
0.000225972
0.000226357
0.000226735
0.000227105
0.000227467
0.000227821
0.000228164
0.000228496
0.000228817
0.000229124
0.000229416
0.000229692
0.000229954
0.000230203
0.000230433
0.000230644
0.000230834
0.000231001
0.000231146
0.000231268
0.000231367
0.000231445
0.000231505
0.000231548
0.000231576
0.000231591
0.000231597
0.000231598
0.000231597
0.0002316
0.000231597
0.000231568
0.000231521
0.000231462
0.000231396
0.000231332
0.000231276
0.000231236
0.000231218
0.000231228
0.000231268
0.000231345
0.00023148
0.000231696
0.000232028
0.000232401
0.000233117
0.000233571
0.000234853
0.000235503
0.000238285
0.000240098
0.000246997
0.000258879
0.000262406
0.000264866
0.000269622
0.000269111
0.00024849
0.0002422
0.000236953
0.000233519
0.000228661
0.000224926
0.000221515
0.000121421
0.000184414
0.000203063
0.000210146
0.000213448
0.000215093
0.000215911
0.000216333
0.000216567
0.000216719
0.000216839
0.000216952
0.000217066
0.000217186
0.000217314
0.00021745
0.000217595
0.000217749
0.000217911
0.000218082
0.000218262
0.000218452
0.000218652
0.000218861
0.000219082
0.000219314
0.000219558