/*--------------------------------*- C++ -*----------------------------------*\
| =========                 |                                                 |
| \\      /  F ield         | OpenFOAM: The Open Source CFD Toolbox           |
|  \\    /   O peration     | Version:  v2106                                 |
|   \\  /    A nd           | Website:  www.openfoam.com                      |
|    \\/     M anipulation  |                                                 |
\*---------------------------------------------------------------------------*/
FoamFile
{
    version     2.0;
    format      ascii;
    arch        "LSB;label=32;scalar=64";
    class       volScalarField;
    location    "1.3";
    object      nut;
}
// * * * * * * * * * * * * * * * * * * * * * * * * * * * * * * * * * * * * * //

dimensions      [0 2 -1 0 0 0 0];

internalField   nonuniform List<scalar> 
29678
(
8.40551e-06
0.000126703
0.000354628
0.000652168
0.000937158
0.00115789
0.00130376
0.00138854
0.00143271
0.00145367
0.00146289
0.00146675
0.00146837
0.0014691
0.00146948
0.0014697
0.00146985
0.00146995
0.00147
0.00147001
0.00146996
0.00146989
0.00146978
0.00146964
0.00146949
0.00146932
0.00146913
0.00146894
0.00146875
0.00146856
0.00146838
0.00146822
0.00146809
0.001468
0.00146796
0.00135793
0.00113478
0.000963771
0.00083121
0.000726291
0.000641698
0.000572466
0.000515107
0.000467067
0.000426447
0.000391813
0.000362062
0.000336327
0.000313917
0.00029428
0.00027696
0.000261577
0.000247802
0.000235346
0.000223944
0.000213338
0.000203269
0.000193457
0.000183573
0.000173215
0.000161886
0.000148989
0.000133874
0.000116159
5.98863e-05
4.67484e-05
3.83816e-05
3.49364e-05
3.41062e-05
3.28724e-05
3.06887e-05
2.88578e-05
2.79025e-05
2.7682e-05
2.79681e-05
2.86038e-05
2.95057e-05
3.0644e-05
3.20261e-05
3.3693e-05
3.57303e-05
3.82769e-05
0.000232532
0.000206536
0.000184332
0.000165369
0.000148101
0.000131758
0.000116265
0.000102545
8.89088e-05
7.83094e-05
6.75678e-05
5.84939e-05
5.35258e-05
2.48217e-05
2.01252e-05
2.56341e-05
4.42338e-05
0.000275927
0.000104034
6.89619e-05
7.15411e-05
5.84358e-05
6.64085e-05
4.70005e-05
4.08836e-05
3.12217e-05
3.83276e-05
6.5412e-05
8.42631e-06
0.000126803
0.000354937
0.000652668
0.000937735
0.00115844
0.00130424
0.00138895
0.00143307
0.001454
0.00146319
0.00146701
0.00146857
0.00146921
0.00146949
0.0014696
0.00146964
0.00146962
0.00146956
0.00146946
0.00146933
0.00146917
0.00146899
0.00146879
0.00146859
0.00146837
0.00146815
0.00146794
0.00146773
0.00146753
0.00146736
0.00146722
0.00146712
0.00145301
0.00117239
0.000966057
0.000811542
0.000692977
0.000599964
0.000525739
0.000465577
0.000416143
0.000375048
0.000340537
0.000311294
0.000286315
0.000264826
0.000246218
0.000230002
0.000215787
0.000203248
0.000192117
0.000182161
0.000173178
0.000164984
0.000157404
0.000150271
0.000143409
0.000136639
0.000129777
0.000122663
0.000115244
0.000107743
0.000100565
9.19934e-05
8.21093e-05
7.37489e-05
7.24787e-05
8.53416e-05
0.000121883
0.000206004
0.000390091
0.000547295
0.000483811
0.000424091
0.000393209
0.000371981
0.000348257
0.0003186
0.000286105
0.000255258
0.000228255
0.000205377
0.000186138
0.000169304
0.00015355
0.000138965
0.000125658
0.000112927
0.000100681
8.79955e-05
7.69357e-05
6.62561e-05
5.73253e-05
5.21799e-05
4.87195e-05
4.76311e-05
5.75817e-05
0.000175856
0.00019461
9.65744e-05
8.75072e-05
6.5924e-05
6.11957e-05
5.66455e-05
4.26216e-05
3.62032e-05
2.94515e-05
3.13021e-05
3.28866e-05
8.44248e-06
0.000126938
0.000355364
0.000653378
0.000938572
0.00115925
0.00130494
0.00138954
0.00143357
0.00145444
0.00146359
0.00146734
0.00146878
0.00146896
0.00141177
0.00136928
0.00134145
0.00132803
0.00132869
0.00134368
0.00137501
0.00142684
0.00146823
0.001468
0.00146776
0.00146753
0.0014673
0.00146708
0.00146686
0.00146667
0.0014665
0.00146637
0.0014663
0.00137012
0.00111179
0.000917537
0.000771576
0.000659306
0.00057127
0.000501063
0.000444182
0.00039745
0.000358599
0.00032596
0.000298286
0.000274632
0.00025427
0.000236626
0.000221245
0.00020776
0.000195869
0.000185323
0.000175909
0.000167443
0.000159762
0.000152717
0.000146168
0.000139983
0.000134037
0.000128218
0.000122431
0.000116597
0.000110542
0.000103831
9.84359e-05
9.72138e-05
0.00010263
0.000118794
0.000151694
0.000209624
0.000308595
0.00046688
0.000673326
0.000748008
0.000646598
0.000542641
0.000469186
0.000413934
0.000368014
0.000328087
0.000293358
0.000263548
0.000237992
0.000215862
0.000196564
0.000179461
0.000164017
0.000149262
0.000135356
0.000122713
0.000110168
9.94057e-05
8.80803e-05
7.76172e-05
6.86984e-05
6.14404e-05
6.00591e-05
8.12039e-05
0.000183758
0.000180265
7.59959e-05
8.97296e-05
9.55212e-05
5.81835e-05
5.75253e-05
4.19275e-05
3.61829e-05
3.16577e-05
3.56091e-05
3.5257e-05
8.46225e-06
0.000127093
0.000355855
0.000654203
0.00093955
0.00116019
0.00130575
0.00139018
0.00143409
0.00145488
0.00146395
0.00144567
0.00136793
0.00130759
0.00126102
0.00122669
0.00120443
0.00119378
0.00119404
0.00120499
0.00122757
0.00126375
0.00131603
0.00138798
0.00146731
0.00146708
0.00146685
0.00146663
0.00146642
0.00146623
0.00146608
0.00146596
0.00146589
0.00123384
0.00102978
0.000867274
0.000739141
0.000637434
0.000555963
0.000489963
0.000435882
0.000391083
0.000353603
0.000321963
0.000295038
0.000271959
0.000252051
0.000234776
0.000219707
0.000206494
0.000194853
0.000184546
0.000175374
0.000167168
0.000159778
0.000153074
0.000146943
0.000141281
0.000136007
0.000131065
0.000126435
0.000122159
0.000118399
0.000115664
0.000114981
0.000116076
0.000121111
0.000134775
0.000162182
0.000213777
0.000316253
0.000569071
0.00139393
0.00140201
0.00088045
0.000594975
0.000470712
0.000398065
0.000346597
0.000305763
0.000271651
0.000242772
0.000218128
0.000196828
0.000178143
0.000161445
0.000146397
0.000133066
0.000120828
0.000109628
9.88684e-05
8.92717e-05
8.05982e-05
7.30068e-05
6.72004e-05
6.19728e-05
6.08921e-05
8.44136e-05
0.000162384
0.000138943
6.32989e-05
8.89481e-05
8.51088e-05
5.96858e-05
5.79565e-05
4.60384e-05
4.02515e-05
3.63907e-05
3.71908e-05
3.13936e-05
8.48546e-06
0.000127256
0.000356381
0.000655093
0.000940609
0.0011612
0.00130657
0.00139079
0.00143456
0.00145528
0.00141734
0.00133586
0.00127313
0.00122464
0.00118769
0.00116076
0.00114324
0.00113459
0.0011343
0.0011421
0.0011584
0.00118416
0.00122033
0.00126782
0.00132691
0.00139697
0.00146652
0.0014663
0.00146609
0.00146591
0.00146576
0.00140031
0.00123787
0.00107005
0.000920267
0.000793362
0.000687835
0.00060077
0.00052898
0.000469547
0.000420041
0.000378511
0.000343422
0.000313573
0.00028802
0.000266015
0.000246964
0.000230392
0.000215912
0.000203207
0.000192018
0.000182129
0.00017336
0.000165556
0.000158588
0.000152347
0.000146744
0.000141706
0.000137191
0.000133188
0.000129737
0.000126951
0.00012506
0.000124467
0.000125768
0.000130984
0.000142416
0.000163205
0.000200405
0.000268427
0.000401902
0.000713558
0.00139642
0.00120031
0.000742606
0.000547222
0.000445737
0.000382403
0.000336853
0.00030087
0.000271218
0.000246498
0.000225713
0.000207971
0.000192579
0.000178969
0.000166677
0.000155258
0.000144264
0.00013361
0.000122829
0.000111976
0.000102025
9.11064e-05
8.32694e-05
7.4547e-05
7.33668e-05
0.000108978
0.000216267
0.000128057
5.20306e-05
7.83084e-05
8.0962e-05
5.62357e-05
5.55942e-05
4.63033e-05
4.1546e-05
3.89524e-05
3.9594e-05
3.27972e-05
8.51233e-06
0.000127426
0.000356931
0.000656029
0.000941715
0.00116221
0.00130732
0.00139131
0.00143502
0.00140882
0.00132538
0.00125996
0.00120777
0.00116655
0.00113435
0.00111003
0.0010932
0.00108351
0.00108057
0.00108405
0.00109399
0.00111063
0.00113397
0.00116358
0.00119824
0.00123572
0.00127176
0.00129947
0.00130928
0.00129069
0.0012365
0.00114837
0.00103816
0.00092277
0.000814217
0.000716932
0.000632118
0.000559416
0.000497625
0.00044525
0.000400814
0.000362998
0.000330685
0.000302952
0.000279044
0.000258343
0.000240346
0.000224641
0.000210891
0.000198818
0.00018819
0.000178813
0.000170526
0.000163195
0.000156708
0.000150976
0.000145933
0.000141532
0.00013776
0.000134644
0.000132262
0.00013077
0.000130443
0.000131723
0.000135364
0.000142666
0.000155624
0.00017694
0.000211776
0.00026979
0.000365979
0.000519833
0.000693388
0.000709158
0.000593901
0.000488865
0.000415496
0.000363317
0.000323651
0.000291863
0.000265683
0.000243743
0.000225003
0.000208699
0.00019422
0.000181092
0.000168948
0.000157521
0.000146597
0.000136101
0.000126006
0.000115541
0.00010725
9.66337e-05
9.05841e-05
8.15534e-05
8.39036e-05
0.00012109
0.00023271
0.000109225
4.25177e-05
6.72641e-05
7.17758e-05
5.27982e-05
5.29751e-05
4.7257e-05
4.39285e-05
4.22646e-05
4.2278e-05
3.40608e-05
8.54314e-06
0.0001276
0.000357501
0.000656998
0.000942826
0.00116311
0.00130789
0.00139178
0.00139287
0.00131161
0.00124567
0.00119022
0.00114458
0.00110772
0.0010781
0.00105491
0.00103779
0.00102643
0.00102046
0.0010195
0.00102335
0.00103182
0.00104453
0.00106067
0.00107877
0.00109644
0.00111018
0.00111565
0.00110772
0.00108142
0.00103375
0.000966501
0.000887085
0.000803666
0.000722388
0.000646718
0.000578398
0.000517993
0.000465282
0.000419616
0.00038017
0.000346113
0.00031667
0.000291164
0.00026901
0.000249714
0.000232862
0.000218108
0.000205161
0.000193782
0.000183768
0.00017495
0.000167184
0.000160356
0.000154371
0.000149159
0.000144668
0.000140875
0.000137786
0.000135449
0.000133964
0.000133505
0.000134347
0.000136923
0.0001419
0.000150301
0.00016373
0.000184789
0.000216
0.000261179
0.000324741
0.000402845
0.000470937
0.000490713
0.000461749
0.000416032
0.000372845
0.000336239
0.000305627
0.000279988
0.000258431
0.000240065
0.000224128
0.000210107
0.000197595
0.000186257
0.00017579
0.000165958
0.000156526
0.000147321
0.000138405
0.000128032
0.000121187
0.000108418
0.000103423
9.1896e-05
9.87896e-05
0.000130597
0.000185006
9.45077e-05
3.54607e-05
5.7409e-05
6.3767e-05
4.95603e-05
5.09381e-05
4.78992e-05
4.64404e-05
4.56651e-05
4.56534e-05
3.65404e-05
8.57815e-06
0.000127778
0.000358088
0.000657984
0.000943856
0.00116367
0.00130815
0.00135559
0.00128348
0.00122182
0.00116707
0.0011193
0.00107936
0.00104616
0.00101878
0.000996617
0.000979321
0.000966592
0.000958072
0.000953383
0.000952185
0.000954111
0.000958613
0.000964824
0.000971433
0.00097656
0.000977671
0.000971735
0.000955711
0.000927222
0.000885468
0.000832144
0.000771109
0.000707029
0.000643698
0.000583552
0.000528015
0.000477776
0.00043299
0.000393445
0.000358721
0.000328322
0.000301739
0.00027849
0.00025814
0.000240304
0.000224652
0.000210898
0.000198801
0.000188156
0.000178789
0.000170555
0.000163331
0.000157018
0.00015154
0.000146838
0.000142876
0.000139642
0.000137156
0.000135475
0.000134704
0.000135015
0.000136657
0.000140017
0.000145646
0.000154325
0.000167152
0.00018558
0.000211059
0.000244582
0.000285914
0.000330233
0.00036666
0.000383018
0.000376908
0.000357097
0.000332807
0.000308664
0.000286514
0.000267009
0.000250124
0.000235422
0.000222474
0.000210978
0.000200695
0.000191378
0.000182799
0.000174745
0.000166952
0.000159197
0.000151714
0.000141581
0.000136533
0.00012142
0.00011904
0.000103978
0.000117933
0.000136584
0.000112107
8.26701e-05
3.03877e-05
4.90907e-05
5.61073e-05
4.81591e-05
5.08335e-05
4.97603e-05
4.9812e-05
4.96084e-05
4.96355e-05
3.968e-05
8.61766e-06
0.000127959
0.000358688
0.000658956
0.000944625
0.0011636
0.0012939
0.00123583
0.00118405
0.00113577
0.00108959
0.00104898
0.00101401
0.000984164
0.000958906
0.000937784
0.000920496
0.000906768
0.000896277
0.000888658
0.000883533
0.000880472
0.000878899
0.000878011
0.000876714
0.000873575
0.000866831
0.000854543
0.000834917
0.000806781
0.000770081
0.000726209
0.000677498
0.000626663
0.000576033
0.000527382
0.000481738
0.000439746
0.00040167
0.000367514
0.000337088
0.000310115
0.000286271
0.000265226
0.000246663
0.000230293
0.000215855
0.000203122
0.000191893
0.000181999
0.000173293
0.000165651
0.000158972
0.000153171
0.000148185
0.000143966
0.00014049
0.000137753
0.00013578
0.000134629
0.0001344
0.000135241
0.000137368
0.000141094
0.000146835
0.00015513
0.000166648
0.000182135
0.00020232
0.000226984
0.000254724
0.000282593
0.000305422
0.000318172
0.00031927
0.000311338
0.000298253
0.000283128
0.000267974
0.000253918
0.000241339
0.00023015
0.000220177
0.000211293
0.000203388
0.00019632
0.000189938
0.00018405
0.00017839
0.000172622
0.000167287
0.000157854
0.000154919
0.000138135
0.000138209
0.000118816
0.000143448
0.000142075
7.13622e-05
7.76243e-05
2.68168e-05
4.19451e-05
4.99421e-05
4.93738e-05
5.21945e-05
5.2902e-05
5.37504e-05
5.40467e-05
5.43826e-05
4.36512e-05
8.66197e-06
0.000128144
0.000359297
0.000659849
0.000944806
0.00116326
0.00117177
0.00112997
0.00109343
0.00105351
0.00101531
0.00098072
0.000950062
0.000923244
0.000899938
0.000879839
0.000862709
0.00084831
0.000836359
0.000826527
0.000818447
0.000811696
0.000805741
0.000799895
0.000793289
0.000784867
0.000773428
0.000757752
0.000736819
0.000710098
0.000677779
0.000640874
0.00060087
0.000559376
0.000517957
0.000477862
0.000439858
0.000404455
0.000371944
0.000342407
0.000315777
0.000291912
0.00027061
0.000251649
0.000234806
0.000219863
0.000206621
0.000194898
0.000184535
0.00017539
0.000167342
0.000160289
0.000154144
0.000148838
0.000144317
0.000140544
0.0001375
0.00013519
0.000133637
0.000132895
0.00013305
0.000134222
0.000136587
0.000140378
0.000145885
0.000153453
0.000163456
0.000176236
0.000191966
0.00021021
0.000229714
0.00024862
0.000264397
0.000274598
0.000278208
0.000275925
0.000269425
0.00026052
0.000250767
0.000241234
0.000232414
0.000224432
0.0002173
0.000211016
0.000205576
0.000200948
0.000197069
0.000193804
0.000190885
0.000187851
0.000185765
0.000177603
0.000178354
0.00016042
0.000162487
0.000138835
0.000174852
0.000150464
5.25202e-05
8.04503e-05
2.41214e-05
3.6281e-05
4.59482e-05
5.25494e-05
5.40912e-05
5.70625e-05
5.81491e-05
5.91023e-05
6.00171e-05
4.85147e-05
8.7114e-06
0.000128331
0.000359908
0.000660545
0.00094366
0.00109593
0.00106477
0.00103921
0.00100942
0.000976676
0.000944974
0.000915336
0.0008884
0.000864252
0.000842725
0.000823629
0.000806787
0.000792003
0.000779041
0.000767614
0.000757397
0.000748008
0.000738989
0.000729783
0.000719725
0.000708058
0.000693977
0.000676728
0.000655746
0.000630815
0.000602178
0.000570539
0.000536942
0.000502315
0.000467735
0.000434145
0.000402112
0.000371982
0.000344058
0.00031843
0.000295102
0.000274004
0.000255012
0.000237981
0.000222754
0.00020917
0.000197078
0.000186336
0.000176816
0.000168404
0.000161001
0.00015452
0.00014889
0.000144053
0.000139963
0.000136593
0.000133929
0.000131977
0.000130758
0.000130317
0.000130725
0.00013207
0.000134492
0.000138151
0.000143239
0.000149956
0.000158486
0.000168935
0.000181257
0.000194996
0.000209312
0.000223017
0.000234681
0.00024308
0.000247515
0.000248087
0.000245523
0.000240849
0.000235128
0.000229203
0.000223557
0.00021841
0.000213891
0.000210097
0.000207125
0.000205053
0.000203926
0.000203728
0.000204279
0.000204998
0.000207824
0.000202306
0.000209658
0.000190076
0.000196929
0.000167472
0.000208438
0.000165612
4.33229e-05
8.98523e-05
2.22969e-05
3.20543e-05
4.43106e-05
5.56857e-05
5.60016e-05
6.18276e-05
6.29805e-05
6.50404e-05
6.68749e-05
5.45364e-05
8.76638e-06
0.000128521
0.000360507
0.000660936
0.000942507
0.00099376
0.00097315
0.000957056
0.000932307
0.000905457
0.00087882
0.000853289
0.000829541
0.000807739
0.000787835
0.000769723
0.000753283
0.000738362
0.000724769
0.000712269
0.000700585
0.000689394
0.000678324
0.000666936
0.000654738
0.000641196
0.000625781
0.000608033
0.000587649
0.000564566
0.000539012
0.000511492
0.000482731
0.000453308
0.000423993
0.00039544
0.000368098
0.000342234
0.000318085
0.000295753
0.000275266
0.000256599
0.000239676
0.000224401
0.000210667
0.000198354
0.000187349
0.00017754
0.000168828
0.00016112
0.000154334
0.000148401
0.000143259
0.000138858
0.000135164
0.000132154
0.000129819
0.000128163
0.000127204
0.000126977
0.000127532
0.00012894
0.000131299
0.000134715
0.000139307
0.000145183
0.000152411
0.000160987
0.000170786
0.00018144
0.000192344
0.000202747
0.000211846
0.000218921
0.000223546
0.000225653
0.000225527
0.00022375
0.000221003
0.000217902
0.00021486
0.000212137
0.000209934
0.00020844
0.000207834
0.000208309
0.00021006
0.000213291
0.000218057
0.000223836
0.000233992
0.000233765
0.000252441
0.000233731
0.000248689
0.00021128
0.00023988
0.000189608
3.91535e-05
9.00835e-05
2.10598e-05
2.86163e-05
4.46267e-05
5.69079e-05
5.81189e-05
6.7074e-05
6.85464e-05
7.24113e-05
7.5609e-05
6.22127e-05
8.82732e-06
0.000128713
0.000361059
0.00066047
0.000927783
0.000908511
0.000894147
0.000881558
0.000861538
0.000839531
0.00081696
0.000794845
0.000773815
0.000754073
0.000735649
0.000718502
0.000702556
0.000687702
0.000673794
0.000660643
0.000648026
0.000635684
0.000623321
0.000610607
0.000597183
0.000582681
0.000566758
0.000549138
0.000529668
0.000508357
0.000485402
0.000461161
0.000436181
0.000410832
0.0003856
0.000361019
0.000337437
0.000315031
0.000294
0.000274441
0.000256387
0.000239837
0.000224747
0.000211051
0.000198677
0.000187535
0.00017754
0.000168606
0.000160655
0.000153612
0.000147412
0.000141992
0.000137303
0.000133306
0.000129972
0.000127284
0.000125232
0.000123819
0.000123059
0.000122979
0.000123609
0.000125005
0.000127231
0.000130355
0.000134445
0.000139553
0.000145687
0.000152797
0.000160771
0.000169269
0.000177853
0.000186104
0.000193517
0.000199647
0.000204236
0.000207181
0.000208593
0.000208796
0.000208224
0.000207293
0.000206346
0.000205644
0.000205427
0.000205949
0.000207476
0.00021032
0.000214859
0.000221608
0.000231081
0.000243274
0.000263918
0.000274016
0.000313438
0.000306178
0.000329514
0.000292611
0.000259983
0.000227653
3.82467e-05
7.18732e-05
2.11397e-05
2.66677e-05
4.71749e-05
5.67058e-05
6.104e-05
7.26203e-05
7.49285e-05
8.20837e-05
8.72095e-05
7.24173e-05
8.89466e-06
0.000128907
0.000361551
0.000659006
0.000843864
0.00083426
0.000825784
0.000813637
0.000797076
0.000778749
0.000759441
0.000740145
0.000721417
0.000703477
0.000686401
0.00067019
0.000654809
0.000640184
0.000626209
0.000612741
0.000599606
0.000586605
0.000573511
0.000560081
0.000546061
0.000531202
0.000515285
0.000498151
0.00047973
0.000460065
0.000439321
0.000417764
0.000395759
0.000373669
0.000351701
0.000330287
0.000309726
0.000290163
0.000271718
0.000254495
0.000238521
0.000223808
0.000210326
0.000198038
0.000186888
0.000176812
0.000167746
0.000159623
0.00015238
0.000145958
0.000140299
0.000135354
0.000131084
0.000127457
0.000124449
0.000122045
0.000120236
0.000119023
0.000118417
0.000118434
0.000119091
0.000120431
0.000122494
0.00012532
0.000128944
0.000133382
0.000138624
0.000144598
0.000151213
0.000158189
0.000165253
0.000172085
0.000178348
0.000183811
0.000188265
0.00019166
0.000194052
0.0001956
0.00019658
0.000197296
0.000197996
0.000198925
0.000200352
0.000202554
0.000205865
0.000210703
0.00021763
0.000227506
0.000241438
0.000260457
0.000294113
0.00032257
0.000404085
0.000449423
0.000482302
0.000504945
0.000260956
0.000280878
4.0153e-05
5.40135e-05
2.31357e-05
2.56379e-05
5.1391e-05
5.70414e-05
6.42738e-05
7.78878e-05
8.25574e-05
9.49926e-05
0.00010321
8.65643e-05
8.96906e-06
0.000129103
0.000362024
0.000657558
0.00077243
0.00076849
0.00076407
0.000752638
0.000738486
0.000722872
0.000706174
0.000689202
0.000672423
0.000656058
0.000640205
0.000624896
0.000610125
0.000595851
0.000581999
0.000568469
0.00055513
0.000541835
0.000528417
0.000514702
0.000500513
0.000485688
0.000470091
0.000453634
0.000436297
0.000418136
0.000399285
0.000379949
0.000360381
0.000340888
0.000321558
0.000302742
0.000284642
0.000267418
0.00025113
0.000235878
0.000221682
0.000208556
0.000196482
0.000185439
0.000175384
0.000166271
0.000158049
0.000150668
0.000144076
0.00013822
0.000133057
0.000128549
0.000124663
0.000121374
0.000118659
0.000116506
0.000114907
0.000113861
0.000113373
0.000113452
0.000114109
0.000115373
0.000117268
0.000119815
0.000123028
0.000126908
0.000131433
0.000136553
0.00014213
0.000148025
0.000154043
0.000159918
0.00016544
0.000170409
0.000174737
0.000178373
0.000181361
0.000183815
0.000185904
0.000187824
0.000189777
0.000191988
0.000194696
0.000198201
0.000202872
0.000209188
0.000217823
0.000229877
0.000246917
0.000270836
0.00031503
0.00036526
0.000522952
0.000751517
0.00102794
0.00104392
0.000247175
0.000314353
4.55979e-05
4.26153e-05
2.71928e-05
2.52112e-05
5.51287e-05
5.81064e-05
6.77993e-05
8.22165e-05
9.32337e-05
0.000111634
0.00012644
0.000107452
9.05137e-06
0.000129302
0.000362478
0.000656326
0.000712559
0.000709327
0.000707408
0.000697262
0.00068509
0.00067159
0.000656998
0.000641948
0.000626823
0.000611832
0.000597087
0.000582639
0.000568502
0.000554662
0.000541075
0.00052767
0.000514359
0.000501035
0.000487581
0.000473877
0.000459805
0.000445262
0.000430167
0.00041448
0.000398207
0.000381406
0.000364189
0.000346714
0.000329162
0.000311771
0.000294648
0.00027794
0.000261884
0.000246594
0.000232119
0.000218533
0.000205857
0.000194102
0.000183256
0.000173308
0.000164228
0.000155978
0.000148517
0.000141807
0.000135801
0.00013046
0.00012575
0.00012164
0.000118104
0.000115119
0.000112668
0.000110738
0.000109321
0.000108415
0.000108023
0.000108141
0.000108784
0.000109968
0.000111705
0.000114005
0.000116871
0.000120295
0.000124254
0.000128719
0.000133528
0.000138618
0.000143882
0.000149108
0.00015413
0.000158793
0.000163031
0.000166812
0.000170167
0.0001732
0.000176044
0.000178822
0.000181703
0.000184864
0.000188515
0.000192946
0.00019852
0.000205723
0.000215246
0.000228229
0.000246318
0.000271368
0.00031827
0.000376568
0.000587851
0.000931229
0.00109004
0.000853891
0.000234675
0.000279015
5.74967e-05
3.70356e-05
3.31451e-05
2.60117e-05
5.75753e-05
5.83042e-05
7.39059e-05
8.57893e-05
0.000109816
0.000132712
0.000163074
0.000141133
9.14253e-06
0.000129502
0.000362797
0.000655518
0.000660139
0.000656169
0.000655534
0.000646899
0.00063644
0.000624631
0.000611738
0.000598271
0.000584546
0.000570753
0.000557006
0.00054337
0.000529874
0.000516523
0.000503297
0.000490153
0.000477033
0.000463867
0.000450578
0.000437084
0.000423313
0.000409202
0.00039471
0.000379824
0.000364564
0.00034899
0.000333192
0.000317295
0.000301437
0.000285776
0.000270484
0.00025554
0.000241187
0.000227503
0.000214565
0.000202392
0.000191018
0.000180446
0.000170669
0.000161685
0.000153467
0.000145983
0.000139203
0.000133089
0.000127609
0.000122733
0.000118434
0.000114686
0.000111467
0.000108757
0.000106541
0.000104809
0.000103551
0.000102767
0.000102455
0.000102599
0.000103222
0.00010433
0.000105928
0.000108019
0.0001106
0.000113658
0.000117166
0.00012111
0.000125381
0.000129899
0.000134592
0.000139343
0.000144008
0.000148488
0.000152685
0.000156582
0.000160201
0.000163624
0.000166949
0.000170294
0.000173801
0.000177607
0.00018189
0.000186894
0.00019294
0.00020047
0.000210101
0.00022285
0.000240126
0.000262954
0.000305867
0.000350833
0.00050294
0.000602798
0.000656737
0.000432578
0.000218227
0.000212804
8.4825e-05
3.56482e-05
4.11258e-05
2.88217e-05
5.98078e-05
5.71299e-05
8.38521e-05
8.9767e-05
0.000131561
0.000159598
0.000227723
0.00020179
9.24321e-06
0.000129692
0.000362502
0.000620143
0.000613301
0.000609951
0.0006088
0.000601329
0.000592207
0.000581722
0.000570188
0.00055802
0.000545475
0.000532723
0.000519874
0.000506997
0.000494133
0.000481301
0.000468498
0.000455706
0.000442891
0.000430011
0.000417019
0.000403865
0.000390509
0.000376916
0.000363072
0.000348981
0.000334672
0.000320199
0.000305641
0.000291095
0.000276669
0.000262478
0.000248672
0.000235248
0.000222316
0.000209992
0.000198349
0.000187381
0.000177125
0.000167576
0.00015873
0.00015059
0.000143131
0.000136321
0.000130138
0.000124556
0.000119548
0.000115092
0.000111164
0.000107742
0.000104808
0.000102345
0.000100341
9.87849e-05
9.76696e-05
9.69917e-05
9.67421e-05
9.69115e-05
9.75163e-05
9.85585e-05
0.00010004
0.000101959
0.000104311
0.000107082
0.000110246
0.000113807
0.000117657
0.000121754
0.000126042
0.000130422
0.000134829
0.000139174
0.000143369
0.000147375
0.000151197
0.000154894
0.000158542
0.000162257
0.000166137
0.000170312
0.000174943
0.000180211
0.000186366
0.000193757
0.000202861
0.000214455
0.000229529
0.00024786
0.000282041
0.000304696
0.000382482
0.000380276
0.00040191
0.000271711
0.000198849
0.00015768
0.000162574
3.72592e-05
5.16884e-05
3.35823e-05
5.89915e-05
5.5843e-05
9.02581e-05
9.66874e-05
0.000145178
0.00019525
0.000334244
0.000339102
9.35415e-06
0.000129873
0.000361905
0.000573871
0.000571078
0.000569
0.000566962
0.000560184
0.000552013
0.000542553
0.000532106
0.000521005
0.000509458
0.000497611
0.000485566
0.000473394
0.000461142
0.000448839
0.000436496
0.000424113
0.000411676
0.000399165
0.000386554
0.00037382
0.000360943
0.000347911
0.000334725
0.000321401
0.000307973
0.00029449
0.00028102
0.000267641
0.000254438
0.0002415
0.00022893
0.000216803
0.000205078
0.000193912
0.00018336
0.000173428
0.000164134
0.000155469
0.000147437
0.000140031
0.00013323
0.000127009
0.000121354
0.000116246
0.000111661
0.00010758
0.000103985
0.000100857
9.81802e-05
9.59403e-05
9.41262e-05
9.27285e-05
9.1741e-05
9.11598e-05
9.09634e-05
9.11548e-05
9.17451e-05
9.27339e-05
9.41204e-05
9.59034e-05
9.80759e-05
0.000100629
0.000103554
0.000106797
0.000110318
0.000114114
0.000118104
0.000122231
0.000126437
0.000130655
0.000134835
0.000138934
0.000142941
0.000146856
0.000150744
0.000154692
0.000158787
0.000163141
0.000167877
0.000173139
0.000179112
0.000186025
0.000194162
0.000203987
0.000216003
0.000228818
0.000252703
0.000258122
0.000296959
0.000272715
0.000291443
0.000200636
0.000177398
0.000122833
0.000172934
4.25529e-05
5.68466e-05
3.95045e-05
5.18104e-05
5.8612e-05
8.02818e-05
0.000113274
0.000138498
0.000243238
0.000375834
0.00068175
9.47642e-06
0.000130051
0.000361285
0.000533311
0.000532891
0.000531806
0.00052923
0.000522935
0.000515455
0.000506804
0.000497236
0.000487019
0.000476318
0.000465259
0.000453934
0.000442413
0.000430745
0.000418967
0.000407102
0.00039516
0.000383144
0.00037105
0.00035887
0.000346598
0.000334232
0.000321773
0.000309235
0.000296639
0.000284021
0.000271428
0.000258917
0.000246551
0.000234402
0.000222537
0.000211027
0.00019997
0.000189309
0.000179128
0.000169505
0.000160462
0.000151998
0.000144101
0.000136772
0.000129995
0.000123767
0.000118065
0.000112878
0.000108189
0.000103982
0.000100237
9.69411e-05
9.40768e-05
9.16311e-05
8.9592e-05
8.79498e-05
8.66961e-05
8.58258e-05
8.53351e-05
8.51825e-05
8.53951e-05
8.59758e-05
8.69228e-05
8.82358e-05
8.9912e-05
9.19456e-05
9.43279e-05
9.70729e-05
0.000100079
0.000103371
0.000106936
0.000110696
0.000114639
0.000118703
0.000122838
0.000126998
0.000131145
0.000135269
0.000139366
0.000143456
0.000147581
0.000151805
0.000156217
0.000160903
0.000165969
0.000171536
0.000177739
0.000184675
0.000192501
0.000201335
0.0002091
0.000224424
0.000220374
0.000241604
0.000214025
0.000228011
0.000161714
0.000157014
0.000101127
9.56794e-05
6.30427e-05
5.31299e-05
4.87781e-05
4.17135e-05
7.45218e-05
6.57547e-05
0.000152237
0.000125388
0.000297727
0.000308246
0.000686556
9.61138e-06
0.000130228
0.000360704
0.000497434
0.000498164
0.00049781
0.000494985
0.000489106
0.000482169
0.000474171
0.000465326
0.000455847
0.00044587
0.000435499
0.000424819
0.000413896
0.000402781
0.000391515
0.000380127
0.00036864
0.000357065
0.000345413
0.000333688
0.000321897
0.00031005
0.000298158
0.000286242
0.000274329
0.000262453
0.000250659
0.000238995
0.000227517
0.000216279
0.00020534
0.000194751
0.00018458
0.000174853
0.000165522
0.000156699
0.000148418
0.000140669
0.000133431
0.0001267
0.000120472
0.000114745
0.0001095
0.000104728
0.000100412
9.65404e-05
9.30967e-05
9.00679e-05
8.74406e-05
8.52033e-05
8.3346e-05
8.18605e-05
8.07397e-05
7.99791e-05
7.95657e-05
7.94563e-05
7.96901e-05
8.0266e-05
8.11825e-05
8.2439e-05
8.40328e-05
8.59592e-05
8.8204e-05
9.0804e-05
9.36675e-05
9.67979e-05
0.000100178
0.000103787
0.000107586
0.000111535
0.000115607
0.000119762
0.000123949
0.000128148
0.000132357
0.000136584
0.000140841
0.000145167
0.000149592
0.000154168
0.000158953
0.000163998
0.000169367
0.000175062
0.000181008
0.000187083
0.000191042
0.000200389
0.000191945
0.000204338
0.000178052
0.000187267
0.000138007
0.000136174
8.82696e-05
7.4505e-05
0.000151408
4.74392e-05
7.99312e-05
3.47511e-05
0.000135775
5.88021e-05
0.000193596
0.000119382
0.000307576
0.000257323
0.000437583
9.76052e-06
0.000130406
0.000360182
0.00046531
0.000466582
0.000466775
0.000463825
0.000458322
0.000451837
0.000444377
0.000436134
0.00042728
0.000417924
0.000408158
0.000398056
0.00038768
0.000377083
0.000366308
0.00035539
0.000344355
0.000333227
0.000322023
0.000310759
0.000299451
0.000288115
0.000276772
0.000265446
0.000254167
0.000242969
0.000231892
0.000220981
0.000210281
0.000199839
0.000189702
0.000179911
0.000170508
0.00016156
0.000152993
0.000144859
0.000137226
0.000130082
0.000123412
0.000117199
0.000111452
0.000106166
0.000101325
9.69186e-05
9.29349e-05
8.9362e-05
8.61868e-05
8.33976e-05
8.09834e-05
7.89347e-05
7.72435e-05
7.59029e-05
7.4907e-05
7.42526e-05
7.39027e-05
7.38365e-05
7.4092e-05
7.46664e-05
7.55604e-05
7.67738e-05
7.83056e-05
8.0154e-05
8.23216e-05
8.47869e-05
8.75127e-05
9.05275e-05
9.37983e-05
9.73003e-05
0.000100999
0.000104873
0.000108889
0.000113022
0.000117242
0.000121512
0.000125813
0.000130137
0.000134484
0.000138863
0.000143281
0.000147745
0.000152252
0.000156788
0.000161348
0.000165894
0.000170262
0.000174214
0.000175646
0.000181022
0.000170915
0.000178103
0.000154527
0.000159388
0.00012297
0.000118328
8.09766e-05
9.48251e-05
2.75553e-05
2.73739e-05
0.000125371
3.26136e-05
0.000100325
6.06608e-05
0.000158429
0.000125237
0.000266425
0.000240898
0.00033652
9.92548e-06
0.000130585
0.000359727
0.000436392
0.000437878
0.000438471
0.000435438
0.000430272
0.000424173
0.000417169
0.000409435
0.000401113
0.000392296
0.000383062
0.000373479
0.000363605
0.00035349
0.000343181
0.000332714
0.000322123
0.000311434
0.000300674
0.000289864
0.000279027
0.000268186
0.000257365
0.000246592
0.000235899
0.000225318
0.000214887
0.000204645
0.000194632
0.000184888
0.000175449
0.000166353
0.000157629
0.000149318
0.00014144
0.000133902
0.000126809
0.000120185
0.000114006
0.00010825
0.000102927
9.80288e-05
9.35445e-05
8.94629e-05
8.57741e-05
8.24673e-05