/*--------------------------------*- C++ -*----------------------------------*\
| =========                 |                                                 |
| \\      /  F ield         | OpenFOAM: The Open Source CFD Toolbox           |
|  \\    /   O peration     | Version:  v2106                                 |
|   \\  /    A nd           | Website:  www.openfoam.com                      |
|    \\/     M anipulation  |                                                 |
\*---------------------------------------------------------------------------*/
FoamFile
{
    version     2.0;
    format      ascii;
    arch        "LSB;label=32;scalar=64";
    class       volScalarField;
    location    "1.3";
    object      omega;
}
// * * * * * * * * * * * * * * * * * * * * * * * * * * * * * * * * * * * * * //

dimensions      [0 0 -1 0 0 0 0];

internalField   nonuniform List<scalar> 
29678
(
6.74392
1.44258
0.565643
0.317174
0.223668
0.182273
0.162524
0.152983
0.148517
0.146554
0.14577
0.145502
0.145445
0.14547
0.145525
0.145592
0.145663
0.145737
0.145813
0.145889
0.145965
0.146039
0.146112
0.146182
0.146248
0.14631
0.146369
0.146422
0.14647
0.146514
0.146554
0.146589
0.146621
0.146651
0.14668
0.146708
0.146738
0.146772
0.146813
0.146863
0.146927
0.147007
0.147105
0.147226
0.147371
0.147542
0.147742
0.147971
0.148229
0.148517
0.148833
0.149175
0.14954
0.149925
0.150324
0.150734
0.151149
0.151565
0.151977
0.152386
0.152793
0.15321
0.153626
0.154052
0.154647
0.155754
0.157167
0.15876
0.160339
0.161881
0.163493
0.165223
0.167061
0.168857
0.170349
0.171457
0.172271
0.172793
0.173033
0.173003
0.17272
0.172196
0.170963
0.168819
0.166926
0.165287
0.164117
0.163363
0.163009
0.16306
0.163839
0.165284
0.168787
0.173474
0.181368
0.198092
0.274869
0.513695
0.924844
1.15851
1.16328
1.1686
1.00284
0.848081
0.721468
0.630069
0.517278
0.40301
0.27274
0.18609
6.74393
1.44169
0.565248
0.317001
0.223594
0.182252
0.162535
0.153017
0.148568
0.146619
0.145845
0.145589
0.145544
0.145581
0.14565
0.145731
0.145817
0.145905
0.145994
0.146083
0.146171
0.146256
0.146338
0.146414
0.146486
0.146552
0.146612
0.146666
0.146714
0.146756
0.146794
0.146827
0.146859
0.146889
0.14692
0.146954
0.146996
0.147048
0.147115
0.147201
0.147311
0.147448
0.147618
0.147823
0.148068
0.148357
0.148691
0.149073
0.149502
0.149979
0.150503
0.151069
0.151675
0.152316
0.152985
0.153676
0.154381
0.155078
0.155752
0.156397
0.157009
0.157585
0.158125
0.158628
0.159131
0.159673
0.160224
0.160715
0.160965
0.160804
0.160164
0.159099
0.157911
0.156722
0.155552
0.154398
0.153245
0.152223
0.151367
0.150691
0.150216
0.149962
0.149954
0.150225
0.150802
0.151744
0.153061
0.154736
0.156856
0.159495
0.162879
0.16686
0.172271
0.178436
0.187452
0.199542
0.250276
0.442649
0.850705
1.10116
1.1053
1.07023
0.964977
0.820845
0.708651
0.61102
0.496171
0.387562
0.281807
0.205699
6.74422
1.44046
0.564693
0.316747
0.223479
0.18221
0.162538
0.15305
0.148623
0.146689
0.145927
0.145682
0.145652
0.145705
0.145789
0.145886
0.145987
0.146089
0.146191
0.146292
0.14639
0.146485
0.146575
0.146658
0.146735
0.146805
0.146868
0.146923
0.146971
0.147013
0.147049
0.147081
0.147111
0.147139
0.147169
0.147205
0.147249
0.147306
0.147379
0.147474
0.147594
0.147744
0.147929
0.148153
0.14842
0.148733
0.149095
0.149507
0.14997
0.150484
0.151047
0.151656
0.152307
0.152994
0.153712
0.154451
0.155198
0.155927
0.15663
0.157299
0.157929
0.158514
0.159049
0.15954
0.160043
0.160479
0.160775
0.160861
0.160675
0.160098
0.159207
0.15814
0.156983
0.155771
0.154575
0.153455
0.152426
0.151511
0.15073
0.150099
0.149641
0.149382
0.149351
0.149582
0.150112
0.150981
0.152241
0.153955
0.156135
0.158782
0.162088
0.165944
0.170966
0.176727
0.185077
0.197531
0.240564
0.400839
0.783769
1.01711
1.02347
0.993599
0.897105
0.785364
0.683514
0.598231
0.487543
0.3782
0.276015
0.205622
6.74439
1.43909
0.564072
0.316463
0.223349
0.182162
0.16254
0.153085
0.148677
0.146754
0.146
0.145765
0.145746
0.14581
0.145904
0.146007
0.146115
0.146222
0.146329
0.146435
0.146538
0.146637
0.146731
0.146819
0.146901
0.146975
0.147042
0.147102
0.147154
0.1472
0.14724
0.147276
0.147308
0.14734
0.147374
0.147414
0.147463
0.147525
0.147604
0.147704
0.147831
0.147987
0.148179
0.14841
0.148684
0.149005
0.149374
0.149794
0.150264
0.150786
0.151356
0.151971
0.152627
0.153318
0.154037
0.154774
0.155517
0.156239
0.15693
0.157581
0.158185
0.158733
0.159218
0.159651
0.160046
0.160345
0.160521
0.160531
0.160305
0.159723
0.158843
0.157745
0.156564
0.155408
0.154314
0.153296
0.152369
0.15155
0.150859
0.15032
0.149958
0.149799
0.149872
0.150212
0.15086
0.151863
0.153274
0.155093
0.157371
0.160177
0.163654
0.16784
0.173069
0.179352
0.187689
0.199943
0.239202
0.380752
0.732941
0.951311
0.96046
0.931564
0.84501
0.722963
0.63435
0.555914
0.461815
0.369462
0.284315
0.217451
6.74436
1.43764
0.563423
0.316168
0.223216
0.182116
0.162548
0.153125
0.148731
0.146811
0.14606
0.145835
0.145825
0.145893
0.14599
0.146096
0.146205
0.146314
0.146423
0.146531
0.146636
0.146738
0.146835
0.146927
0.147013
0.147093
0.147165
0.147231
0.14729
0.147342
0.14739
0.147433
0.147473
0.147514
0.147558
0.147609
0.147668
0.147741
0.147832
0.147945
0.148084
0.148255
0.148462
0.148708
0.148999
0.149336
0.149723
0.150161
0.15065
0.15119
0.151778
0.152411
0.153084
0.15379
0.154521
0.155267
0.156013
0.156734
0.157419
0.158058
0.158641
0.159158
0.1596
0.160003
0.160329
0.160542
0.160609
0.160468
0.160032
0.159306
0.158396
0.157392
0.156357
0.155341
0.154366
0.153449
0.152609
0.151869
0.151254
0.150793
0.1505
0.150393
0.150499
0.150849
0.151479
0.152429
0.153746
0.155489
0.157722
0.160467
0.163842
0.167973
0.173004
0.179431
0.187289
0.200109
0.236129
0.361876
0.672375
0.885736
0.899709
0.875858
0.783128
0.661046
0.58402
0.519319
0.437512
0.356726
0.280827
0.218628
6.74408
1.43616
0.562765
0.315873
0.22309
0.182083
0.16257
0.153174
0.148781
0.146854
0.146113
0.1459
0.145897
0.14597
0.146068
0.146175
0.146286
0.146397
0.146509
0.146619
0.146727
0.146832
0.146934
0.14703
0.147121
0.147207
0.147286
0.147358
0.147425
0.147487
0.147543
0.147597
0.147649
0.147702
0.147759
0.147824
0.147898
0.147987
0.148094
0.148224
0.148382
0.148573
0.1488
0.149069
0.149382
0.149744
0.150156
0.150619
0.151135
0.151702
0.152316
0.152975
0.153673
0.154402
0.155153
0.155915
0.156671
0.157397
0.158082
0.158715
0.159285
0.15978
0.160195
0.160578
0.160854
0.161004
0.160984
0.160701
0.160169
0.159454
0.158605
0.157673
0.156709
0.155751
0.154828
0.153959
0.153166
0.152477
0.151925
0.151527
0.151287
0.151221
0.15136
0.151737
0.152386
0.153349
0.154675
0.156426
0.158674
0.161469
0.164907
0.169161
0.174226
0.180933
0.188321
0.201683
0.234588
0.348925
0.617672
0.828793
0.849336
0.828523
0.729905
0.59344
0.524735
0.472307
0.404432
0.338764
0.274916
0.219463
6.74354
1.43466
0.562104
0.315586
0.222979
0.182078
0.16262
0.15323
0.148808
0.146885
0.146168
0.145971
0.145975
0.146051
0.146152
0.146261
0.146374
0.146489
0.146603
0.146717
0.146829
0.146939
0.147045
0.147148
0.147245
0.147338
0.147425
0.147506
0.147583
0.147655
0.147723
0.147789
0.147855
0.147924
0.147997
0.148078
0.148171
0.148279
0.148407
0.148559
0.148741
0.148956
0.149209
0.149505
0.149848
0.150239
0.150683
0.151179
0.151728
0.152328
0.152975
0.153667
0.154395
0.155153
0.15593
0.156714
0.157482
0.158215
0.158902
0.159532
0.160094
0.160575
0.160999
0.161352
0.161593
0.161692
0.161563
0.161209
0.160672
0.159985
0.159182
0.158306
0.157395
0.156482
0.155594
0.154756
0.153997
0.153351
0.152848
0.152495
0.152289
0.152251
0.152415
0.152815
0.153483
0.15446
0.155793
0.157541
0.159778
0.162592
0.166088
0.170462
0.17552
0.182496
0.189431
0.203511
0.233298
0.337282
0.566236
0.777834
0.806817
0.784601
0.676226
0.520932
0.461104
0.422621
0.368693
0.31738
0.264642
0.216924
6.74273
1.43315
0.561448
0.315312
0.222903
0.182132
0.16271
0.153244
0.148798
0.146914
0.146231
0.146051
0.146063
0.146144
0.146247
0.146359
0.146475
0.146593
0.146712
0.14683
0.146947
0.147063
0.147176
0.147285
0.14739
0.147492
0.147588
0.14768
0.147768
0.147853
0.147935
0.148017
0.148099
0.148186
0.148278
0.14838
0.148495
0.148627
0.14878
0.14896
0.14917
0.149416
0.149701
0.150031
0.150409
0.150838
0.15132
0.151856
0.152446
0.153086
0.153775
0.154507
0.155274
0.156068
0.156877
0.157686
0.158469
0.159211
0.159903
0.160533
0.161089
0.161563
0.161995
0.162334
0.162554
0.162596
0.162413
0.162049
0.16152
0.160853
0.160081
0.15924
0.158361
0.157475
0.15661
0.155796
0.155066
0.154456
0.153992
0.153669
0.153488
0.153472
0.153658
0.154079
0.154769
0.155768
0.157122
0.158888
0.161138
0.163963
0.167471
0.171966
0.176982
0.184199
0.190688
0.205373
0.232198
0.324607
0.520701
0.736729
0.775261
0.745018
0.629265
0.448991
0.397645
0.371353
0.331553
0.294087
0.252409
0.212944
6.74163
1.43163
0.560798
0.315066
0.2229
0.18229
0.162762
0.15318
0.148766
0.146949
0.146305
0.146144
0.146165
0.146249
0.146356
0.146472
0.146591
0.146713
0.146836
0.14696
0.147084
0.147206
0.147326
0.147444
0.147559
0.14767
0.147778
0.147883
0.147985
0.148085
0.148184
0.148284
0.148386
0.148494
0.148609
0.148736
0.148878
0.149039
0.149223
0.149435
0.14968
0.149963
0.150288
0.150659
0.151081
0.151555
0.152084
0.152669
0.153308
0.154
0.154739
0.15552
0.156335
0.157174
0.158024
0.158859
0.159661
0.160418
0.161118
0.16175
0.162303
0.162789
0.163222
0.163553
0.163758
0.163773
0.163574
0.163207
0.162685
0.162033
0.16128
0.160458
0.159596
0.158726
0.157876
0.157077
0.156369
0.155787
0.155348
0.155045
0.154882
0.154884
0.155089
0.155532
0.156248
0.157275
0.15866
0.160458
0.162743
0.165608
0.169147
0.173721
0.178677
0.185865
0.19206
0.207095
0.23197
0.313003
0.488807
0.702463
0.753056
0.711016
0.590106
0.384964
0.342092
0.324374
0.296814
0.270454
0.238781
0.207599
6.74024
1.43011
0.560163
0.314875
0.22304
0.182491
0.162703
0.153049
0.148735
0.146996
0.146393
0.146251
0.14628
0.14637
0.14648
0.146599
0.146723
0.14685
0.146979
0.147109
0.147239
0.14737
0.147499
0.147627
0.147753
0.147876
0.147998
0.148118
0.148236
0.148354
0.148473
0.148594
0.14872
0.148853
0.148996
0.149153
0.149326
0.149522
0.149743
0.149994
0.150282
0.150609
0.150982
0.151403
0.151877
0.152407
0.152994
0.153638
0.154338
0.155091
0.155892
0.156734
0.157609
0.158504
0.159396
0.160262
0.161089
0.161864
0.162577
0.163215
0.16377
0.164279
0.164714
0.165042
0.165243
0.165261
0.165066
0.164697
0.164179
0.163534
0.16279
0.161976
0.161121
0.160253
0.159406
0.158615
0.157919
0.157352
0.156923
0.15663
0.156478
0.156495
0.156717
0.157182
0.157924
0.158984
0.160405
0.162245
0.16458
0.167507
0.171102
0.175781
0.180701
0.187717
0.193882
0.208931
0.232878
0.304228
0.474413
0.663829
0.733922
0.684656
0.561974
0.338148
0.299987
0.286964
0.268221
0.249495
0.225362
0.201381
6.73857
1.42858
0.559553
0.314788
0.223489
0.182541
0.162459
0.152894
0.148713
0.147057
0.146497
0.146373
0.146411
0.146506
0.14662
0.146744
0.146873
0.147006
0.147141
0.147278
0.147417
0.147556
0.147696
0.147836
0.147974
0.148113
0.14825
0.148387
0.148525
0.148664
0.148806
0.148953
0.149106
0.149269
0.149445
0.149637
0.149849
0.150085
0.15035
0.150649
0.150987
0.151368
0.151798
0.15228
0.152818
0.153415
0.154071
0.154787
0.155562
0.15639
0.157267
0.158184
0.159131
0.160087
0.161021
0.161923
0.16278
0.16358
0.16431
0.164959
0.165524
0.16606
0.166502
0.166832
0.167039
0.167076
0.166918
0.166552
0.166031
0.165386
0.164641
0.163825
0.162964
0.162088
0.161233
0.160437
0.15974
0.159171
0.158739
0.158444
0.158296
0.158322
0.158558
0.159041
0.159808
0.160898
0.162358
0.164245
0.16664
0.169645
0.173313
0.178095
0.182976
0.189815
0.196075
0.211189
0.234452
0.297915
0.47435
0.627011
0.716928
0.666426
0.543912
0.307908
0.271243
0.260472
0.247114
0.232965
0.213481
0.194376
6.7366
1.42706
0.558985
0.314854
0.223946
0.182483
0.162157
0.152744
0.148708
0.147136
0.146617
0.146512
0.146558
0.146658
0.146778
0.146907
0.147042
0.147181
0.147324
0.147469
0.147618
0.147768
0.14792
0.148073
0.148227
0.148382
0.148538
0.148696
0.148856
0.14902
0.149189
0.149365
0.149551
0.149749
0.149964
0.150197
0.150454
0.150739
0.151057
0.151413
0.151811
0.152258
0.152756
0.153312
0.153927
0.154605
0.155346
0.15615
0.157014
0.157934
0.158904
0.159912
0.160938
0.161949
0.162933
0.163878
0.164771
0.1656
0.166351
0.167015
0.167619
0.16817
0.168622
0.168958
0.16917
0.169236
0.169115
0.168802
0.168287
0.167631
0.166874
0.166045
0.165169
0.164276
0.163403
0.162587
0.161871
0.161281
0.160828
0.160518
0.160363
0.160391
0.160635
0.16113
0.161916
0.163033
0.164528
0.166463
0.168921
0.172011
0.175756
0.18061
0.185406
0.192099
0.198595
0.21358
0.23645
0.294703
0.485089
0.59159
0.696307
0.657283
0.535331
0.290644
0.253326
0.240651
0.229744
0.219296
0.204716
0.187593
6.73434
1.42554
0.558505
0.315319
0.22419
0.18222
0.161839
0.152612
0.148722
0.147233
0.146754
0.146667
0.146723
0.146829
0.146954
0.147089
0.14723
0.147377
0.147529
0.147684
0.147844
0.148007
0.148173
0.148341
0.148513
0.148687
0.148865
0.149047
0.149233
0.149426
0.149627
0.149838
0.150062
0.150302
0.150561
0.150844
0.151155
0.151498
0.151879
0.152302
0.152773
0.153297
0.153879
0.154522
0.155231
0.156007
0.156851
0.157762
0.158736
0.159769
0.160851
0.161956
0.163052
0.164128
0.16517
0.166165
0.167101
0.167963
0.16874
0.169424
0.170073
0.170648
0.171114
0.17146
0.171679
0.171766
0.171685
0.17142
0.170971
0.170328
0.169551
0.168693
0.167789
0.166868
0.165963
0.165114
0.164361
0.163731
0.163239
0.162897
0.162721
0.162738
0.162979
0.163477
0.164273
0.165407
0.166932
0.168911
0.171429
0.1746
0.178408
0.183272
0.187974
0.194561
0.201449
0.216061
0.238996
0.294556
0.501767
0.567065
0.68667
0.656791
0.536958
0.283191
0.24107
0.224474
0.214437
0.205197
0.194935
0.1818
6.73178
1.42404
0.558131
0.316248
0.224182
0.181709
0.161508
0.152501
0.14876
0.147352
0.146911
0.146842
0.146907
0.147019
0.14715
0.147292
0.147441
0.147597
0.147758
0.147925
0.148098
0.148275
0.148457
0.148644
0.148836
0.149033
0.149236
0.149445
0.149662
0.149889
0.150127
0.150379
0.150647
0.150936
0.151248
0.15159
0.151964
0.152376
0.152831
0.153335
0.153893
0.15451
0.155192
0.155942
0.156764
0.15766
0.158629
0.15967
0.160779
0.161947
0.163143
0.164335
0.165513
0.166664
0.167774
0.168828
0.169814
0.170716
0.171523
0.172238
0.172941
0.173544
0.17403
0.174389
0.174616
0.17471
0.174667
0.174447
0.174048
0.173479
0.172733
0.171843
0.170892
0.169924
0.168974
0.168076
0.167267
0.166579
0.16603
0.165636
0.16542
0.165409
0.16563
0.166117
0.166909
0.168051
0.169594
0.171606
0.174177
0.177415
0.18124
0.18602
0.190685
0.197246
0.204696
0.218808
0.242252
0.297372
0.519401
0.559315
0.694256
0.662659
0.549585
0.2836
0.233753
0.215158
0.204926
0.195373
0.187012
0.177463
6.72893
1.42254
0.557807
0.317189
0.224133
0.181168
0.161192
0.152417
0.148822
0.147491
0.147087
0.147035
0.14711
0.147229
0.147368
0.147517
0.147675
0.147841
0.148014
0.148194
0.148381
0.148575
0.148776
0.148984
0.149199
0.149422
0.149654
0.149895
0.150148
0.150414
0.150695
0.150994
0.151315
0.151661
0.152036
0.152446
0.152895
0.153389
0.153933
0.154534
0.155196
0.155926
0.156728
0.157608
0.158567
0.159607
0.160729
0.161929
0.163199
0.164497
0.165799
0.167094
0.168367
0.169606
0.170795
0.171918
0.172962
0.173912
0.174758
0.175545
0.176288
0.176924
0.177433
0.177809
0.178047
0.178146
0.178107
0.17793
0.177579
0.17706
0.176384
0.175553
0.174563
0.173528
0.172509
0.171543
0.170663
0.169898
0.16927
0.168804
0.168525
0.168461
0.168641
0.169097
0.169868
0.170999
0.172545
0.174576
0.177184
0.180458
0.184223
0.188889
0.193582
0.200264
0.208257
0.221898
0.246108
0.302558
0.531929
0.567036
0.710237
0.676073
0.566919
0.294039
0.231087
0.211063
0.199374
0.188747
0.180773
0.173797
6.7258
1.42104
0.557538
0.318049
0.224069
0.180645
0.160902
0.152362
0.14891
0.147654
0.147285
0.14725
0.147334
0.147461
0.147608
0.147766
0.147934
0.148111
0.148298
0.148493
0.148697
0.14891
0.149132
0.149364
0.149606
0.149859
0.150124
0.150403
0.150697
0.151008
0.15134
0.151695
0.152077
0.15249
0.152939
0.15343
0.153968
0.154559
0.155209
0.155925
0.156712
0.157577
0.158526
0.159561
0.160687
0.161905
0.163213
0.164599
0.166013
0.16744
0.168866
0.170279
0.171664
0.173006
0.174288
0.175494
0.176608
0.177615
0.17851
0.179384
0.180185
0.180864
0.181405
0.181802
0.182051
0.182153
0.182111
0.18193
0.181618
0.181147
0.180518
0.179745
0.178836
0.177771
0.176664
0.175601
0.174627
0.173767
0.173042
0.172481
0.172111
0.171964
0.172074
0.172473
0.173198
0.174296
0.175825
0.177855
0.180469
0.183718
0.187316
0.191891
0.196577
0.20329
0.211439
0.225333
0.250935
0.308041
0.533384
0.586313
0.723402
0.70459
0.585705
0.310529
0.233118
0.21088
0.196095
0.184216
0.174341
0.170269
6.72237
1.41957
0.557477
0.318723
0.223913
0.180142
0.160646
0.152338
0.149025
0.14784
0.147505
0.147486
0.14758
0.147716
0.147872
0.14804
0.14822
0.14841
0.148612
0.148824
0.149048
0.149282
0.149529
0.149789
0.150062
0.150349
0.150653
0.150974
0.151315
0.15168
0.15207
0.152489
0.152943
0.153435
0.153971
0.154557
0.1552
0.155907
0.156684
0.157538
0.158476
0.159504
0.16063
0.161855
0.163185
0.164617
0.166132
0.167678
0.169244
0.17082
0.172391
0.173943
0.175461
0.176926
0.178319
0.179624
0.180824
0.181903
0.182868
0.18385
0.184725
0.185461
0.186043
0.186467
0.18673
0.186833
0.186781
0.186581
0.186248
0.185801
0.185214
0.184477
0.183616
0.182642
0.181526
0.180359
0.179256
0.178268
0.177424
0.176747
0.176261
0.176003
0.17601
0.176317
0.176964
0.178
0.179481
0.181477
0.184041
0.18715
0.19053
0.19502
0.19955
0.206402
0.214699
0.22945
0.256013
0.312104
0.51371
0.607382
0.724158
0.746854
0.602609
0.331096
0.23797
0.213853
0.194348
0.18029
0.168839
0.164787
6.71863
1.4182
0.558283
0.318848
0.223384
0.17964
0.160427
0.152347
0.149167
0.148051
0.147748
0.147745
0.14785
0.147996
0.148161
0.148341
0.148534
0.14874
0.148958
0.14919
0.149436
0.149695
0.14997
0.150261
0.150569
0.150896
0.151244
0.151615
0.152011
0.152437
0.152895
0.15339
0.153927
0.154512
0.15515
0.155849
0.156617
0.157461
0.158389
0.159409
0.160529
0.161755
0.163094
0.164551
0.166125
0.167778
0.16947
0.171192
0.172934
0.174684
0.176427
0.178146
0.179821
0.181435
0.182964
0.184391
0.185695
0.186865
0.18797
0.189058
0.190022
0.19083
0.191468
0.191928
0.192208
0.192312
0.192244
0.192013
0.191644
0.191151
0.19055
0.189843
0.188996
0.188042
0.187003
0.185868
0.184657
0.183515
0.182514
0.181687
0.181062
0.180668
0.180539
0.180718
0.181248
0.182179
0.183573
0.185481
0.187893
0.190779
0.193942
0.1984
0.202814
0.210004
0.218421
0.23449
0.261004
0.316309
0.47279
0.614185
0.707511
0.786031
0.613526
0.354292
0.244283
0.219034
0.193231
0.178248
0.16547
0.160425
6.71458
1.41693
0.55953
0.31867
0.22264
0.179146
0.160246
0.152389
0.149338
0.148286
0.148014
0.148029
0.148145
0.148301
0.148478
0.148671
0.148879
0.149102
0.14934
0.149593
0.149864
0.150152
0.150459
0.150786
0.151134
0.151507
0.151905
0.152332
0.152792
0.153288
0.153825
0.154408
0.155043
0.155737
0.156496
0.157328
0.158244
0.159252
0.160361
0.161581
0.162918
0.164384
0.165983
0.16771
0.169509
0.17136
0.173253
0.17518
0.17713
0.179087
0.181035
0.182953
0.184821
0.186615
0.188311
0.189887
0.191322
0.192609
0.193894
0.195126
0.19621
0.197115
0.197826
0.198336
0.198642
0.198746
0.198657
0.198385
0.197962
0.1974
0.19672
0.19595
0.195104
0.194134
0.193075
0.191954
0.190778
0.18957
0.188413
0.187405
0.186604
0.186039
0.185746
0.185765
0.186136
0.186915
0.188157
0.189878
0.192028
0.194684
0.197653
0.202151
0.206491
0.214147
0.222603
0.240367
0.266491
0.322402
0.4402
0.607805
0.671174
0.806419
0.625321
0.373905
0.252763
0.224493
0.195235
0.178102
0.16444
0.158053
6.71022
1.41571
0.560835
0.3184
0.221847
0.178677
0.160103
0.152466
0.149538
0.148548
0.148306
0.148337
0.148465
0.148633
0.148823
0.149031
0.149256
0.149498
0.149758
0.150037
0.150335
0.150656
0.150999
0.151366
0.151761
0.152185
0.152641
0.153134
0.153667
0.154245
0.154873
0.155559
0.156308
0.157129
0.15803
0.159021
0.160111
0.161314
0.162641
0.1641
0.165702
0.167455
0.169337
0.171292
0.17331
0.175388
0.177516
0.179685
0.181881
0.184087
0.186283
0.188444
0.190546
0.19256
0.19446
0.196221
0.197821
0.199272
0.200788
0.202208
0.20345
0.204484
0.205294
0.205871
0.206214
0.206323
0.206208
0.205887
0.205391
0.204736
0.203947
0.203051
0.202084
0.201071
0.199949
0.198755
0.197523
0.196276
0.195057
0.193935
0.192957
0.192193
0.191702
0.191527
0.191702
0.192267
0.193247
0.194656
0.19651
0.198955
0.201751
0.206343
0.2106
0.218854
0.227302
0.247095
0.27282
0.331665
0.454297
0.626599
0.652945
0.81223
0.650522
0.3838
0.264529
0.22844
0.201278
0.179814
0.165824
0.157514
6.70556
1.41452
0.562113
0.318097
0.221056
0.178242
0.16
0.152576
0.149766
0.148835
0.148622
0.14867
0.148812
0.148993
0.149198
0.149422
0.149666
0.14993
0.150215
0.150522
0.150853
0.151209
0.151593
0.152007
0.152454
0.152937
0.15346
0.154027
0.154644
0.155316
0.156051
0.156855
0.157738
0.158709
0.159777
0.160955
0.162254
0.16369
0.165276
0.167023
0.168937
0.170969
0.173084
0.175279
0.177549
0.179892
0.182298
0.184755
0.187248
0.189755
0.192251
0.194708
0.197094
0.199378
0.201529
0.20352
0.205329
0.207044
0.208829
0.210484
0.211929
0.213132
0.214074
0.214745
0.215139
0.215261
0.215117
0.21474
0.214154
0.213379
0.212442
0.211378
0.210228
0.20903
0.207807
0.206481
0.205105
0.203724
0.202376
0.201115
0.19999
0.199063
0.198378
0.19798
0.197903
0.198165
0.1988
0.199866
0.201431
0.203677
0.206307
0.211029
0.215199
0.224212
0.232637
0.254838
0.280345
0.346308
0.511009
0.641495
0.66261
0.808112
0.690352
0.377415
0.278426
0.231317
0.208988
0.183254
0.169109
0.158646
6.70059
1.41336
0.563336
0.317781
0.220287
0.177849
0.159937
0.152721
0.150023
0.149148
0.148965
0.14903
0.149186
0.149382
0.149604
0.149847
0.150112
0.1504
0.150713
0.151052
0.151419
0.151816
0.152246
0.152713
0.153219
0.153769
0.154368
0.15502
0.155734
0.156515
0.157373
0.158315
0.159354
0.1605
0.161766
0.163165
0.164713
0.166425
0.168319
0.170388
0.172565
0.174839
0.177213
0.179685
0.182251
0.184907
0.187645
0.19045
0.193302
0.196173
0.199033
0.201848
0.20458
0.207193
0.209655
0.211932
0.214008
0.216091
0.218209
0.220162
0.221869
0.22329
0.224405
0.2252
0.225668
0.225812
0.225639
0.225202
0.224509
0.223582
0.222458
0.221178
0.219785
0.218327
0.216852
0.215346
0.213745
0.212126
0.210546
0.209052
0.207699
0.206535
0.205602
0.204941
0.204593
0.204566
0.204878
0.205616
0.206892
0.208926
0.211394
0.216253
0.220368
0.230279
0.238722
0.263708
0.289617
0.366103
0.571837
0.655072
0.700509
0.782731
0.740955
0.366114
0.293583
0.236529
0.216596
0.188326
0.173268
0.161079
6.69531
1.41222
0.564493
0.317463
0.219552
0.177499
0.159915
0.152899
0.150309
0.149488
0.149333
0.149417
0.149589
0.149801
0.150041
0.150305
0.150594
0.15091
0.151254
0.151628
0.152035
0.152479
0.152961
0.153487
0.15406
0.154686
0.155371
0.156122
0.156946
0.157853
0.158852
0.159956
0.161176
0.162528
0.164026
0.165688
0.167531
0.169566
0.171768
0.174084
0.176515
0.179064
0.181737
0.184533
0.18745
0.190483
0.193622
0.196846
0.20013
0.203441
0.20674
0.209987
0.21314
0.216157
0.219
0.221635
0.22406
0.226617
0.22916
0.231493
0.233531
0.235232
0.236569
0.237525
0.238093
0.238271
0.23808
0.237573
0.236752
0.235648
0.234299
0.232748
0.231046
0.229249
0.227413
0.225586
0.223673
0.221716
0.219792
0.217959
0.216272
0.214777
0.213518
0.212534
0.21187
0.211552
0.211577
0.212001
0.212978
0.214769
0.217077
0.222035
0.226188
0.237061
0.245648
0.273888
0.301637
0.392125
0.615384
0.764476
0.799606
0.807096
0.766645
0.376022
0.306644
0.246486
0.22295
0.194226
0.17745
0.163981
6.68971
1.41109
0.565581
0.317151
0.218858
0.177197
0.159934
0.153111
0.150624
0.149855
0.149728
0.149831
0.15002
0.150251
0.150511
0.150798
0.151114
0.15146
0.151839
0.152253
0.152706
0.1532
0.153742
0.154334
0.154983
0.155696
0.156479
0.157341
0.158292
0.159343
0.160506
0.161796
0.163228
0.164821
0.166592
0.168562
0.170736
0.17305
0.175488
0.178066
0.180787
0.183656
0.18668
0.189862
0.1932
0.196686
0.200306
0.204035
0.207839
0.211677
0.215505
0.219275
0.22294
0.226454
0.229772
0.232857
0.235759
0.23891
0.241985
0.244795
0.24725
0.249303
0.250918
0.252078
0.252771
0.252995
0.252799
0.252212
0.251245
0.249931
0.248309
0.246429
0.244348
0.242128
0.239836
0.237538
0.235188
0.232769
0.230373
0.228074
0.225934
0.224003
0.222326
0.220941
0.21989
0.219227
0.218964
0.21909
0.219753
0.221256
0.223404
0.228365
0.232748
0.24442
0.254024
0.284964
0.317574
0.422106
0.663591
1.01845
0.913033
0.986383
0.74084
0.404771
0.312931
0.259101
0.227207
0.199693
0.180969
0.166717
6.6838
1.40999
0.566595
0.316848
0.218208
0.176941
0.159993
0.153355
0.150966
0.150248
0.150149
0.150272
0.15048
0.150731
0.151014
0.151327
0.151672
0.152052
0.15247
0.152928
0.153431
0.153984
0.15459
0.155258
0.155992
0.156802
0.157697
0.158686
0.159782
0.160998
0.162351
0.163856
0.165536
0.167409
0.169496
0.17178
0.174199
0.176755
0.179462
0.182336
0.185394
0.188641
0.192083
0.195726
0.199568
0.203598
0.207797
0.212131
0.216558
0.221029
0.225494
0.229901
0.234196
0.238326
0.242242
0.2459
0.249501
0.253356
0.257087
0.26049
0.263466
0.265953
0.267911
0.269318
0.270159
0.270435
0.270238
0.269557
0.268415
0.266848
0.264901
0.26263
0.260095
0.257366
0.254516
0.251622
0.248663
0.245619
0.242593
0.239672
0.236932
0.234431
0.232217
0.230331
0.228809
0.227709
0.227095
0.226926
0.227259
0.228426
0.230396
0.235216
0.240095
0.252176
0.264305
0.296321
0.337503
0.456918
0.791196
1.08402
0.961481
1.14976
0.740954
0.4318
0.315185
0.269597
0.229907
0.204004
0.183424
0.168663
6.67758
1.40895
0.567496
0.316541
0.217606
0.176732
0.16009
0.153631
0.151336
0.150667
0.150596
0.150741
0.150969
0.151242
0.15155
0.151892
0.15227
0.152687
0.153148
0.153655
0.154214
0.15483
0.15551
0.156262
0.157092
0.158012
0.159032
0.160165
0.161426
0.162832
0.164402
0.166158
0.168122
0.170312
0.172677
0.175184
0.177846
0.180678
0.183697
0.186918
0.190369
0.194062
0.198003
0.202198
0.206644
0.211326
0.216216
0.221273
0.226445
0.231679
0.23692
0.242111
0.247192
0.252101
0.256775
0.261173
0.265698
0.270441
0.274998
0.279148
0.282771
0.285794
0.288166
0.289859
0.29086
0.291195
0.290973
0.290164
0.288797
0.286915
0.284571
0.281826
0.278749
0.275411
0.271893
0.268276
0.26452
0.260657
0.25681
0.253083
0.249562
0.246319
0.243408
0.240878
0.238771
0.237127
0.236043
0.235525
0.235519
0.236295
0.238035
0.242552
0.2482
0.260345
0.275682
0.308727
0.360526
0.500885
0.962846
1.0573
1.05608
1.12469
0.80534
0.432467
0.323777
0.274146
0.232718
0.207016
0.185251
0.170054
6.67102
1.40857
0.56788
0.316051
0.21705
0.176571
0.160226
0.153937
0.151733
0.151111
0.151069
0.151236
0.151486
0.151783
0.152118
0.152492
0.152906
0.153365
0.153872
0.154434
0.155055
0.155742
0.156504
0.157348
0.158286
0.159329
0.160491
0.161787
0.163236
0.164859
0.166678
0.168719
0.170986
0.17341
0.175989
0.17874
0.181682
0.184834
0.188217
0.191849
0.195758
0.199978
0.204513
0.209367
0.214536
0.219996
0.225709
0.231629
0.237699
0.243863
0.250064
0.256239
0.262317
0.26822
0.273867
0.27923
0.284942
0.290825
0.296437
0.301532
0.305964
0.309643
0.312508
0.314527
0.315685
0.316082
0.315782
0.314769
0.313086
0.310788
0.307936
0.3046
0.300856
0.296785
0.292469
0.287972
0.283224
0.27834
0.273456
0.268698
0.264176
0.259974
0.256163
0.252801
0.249937
0.247613
0.245903
0.244899
0.244535
0.244854
0.246276
0.250404
0.2568
0.26897
0.287495
0.322407
0.385563
0.54782
1.02116
1.12612
1.21841
1.21606
0.810228
0.442261
0.329137
0.278263
0.235704
0.209218
0.186609
0.171024
6.6641
1.40876
0.567812
0.315398
0.216536
0.176456
0.160398
0.154273
0.152155
0.151579
0.151566
0.151756
0.152031
0.152354
0.152719
0.153127
0.153581
0.154085
0.154644
0.155265
0.155954
0.15672
0.157572
0.15852
0.159578
0.160758
0.162079
0.16356
0.165222
0.167091
0.16919
0.171504
0.173971
0.176605
0.179427
0.182459
0.185724
0.189247
0.193054
0.197171
0.201624
0.20646
0.211702
0.217342
0.22337
0.229754
0.23645
0.243408
0.250573
0.257891
0.265301
0.272731
0.280089
0.287272
0.294169
0.300805
0.308051
0.315403
0.32237
0.328667
0.334114
0.338596
0.34204
0.344415
0.345709
0.346153
0.345696
0.344367
0.342227
0.339348
0.33581
0.3317
0.327107
0.322124
0.316839
0.311222
0.305268
0.299143
0.292994
0.286976
0.281193
0.275772
0.270805
0.266366
0.262513
0.259305
0.2568
0.255103
0.254272
0.254096
0.25508
0.258762
0.26557
0.278079
0.299282
0.337036
0.411759
0.594745
1.0622
1.15193
1.416
1.28579
0.772654
0.457403
0.334444
0.283653
0.238822
0.211148
0.18778
0.171789
6.65682
1.40923
0.567496
0.314671
0.216066
0.176385
0.160604
0.154635
0.1526
0.152069
0.152086
0.152301
0.152601
0.152953
0.153351
0.153796
0.154293
0.154846
0.155462
0.156148
0.156912
0.157764
0.158715
0.159779
0.160969
0.162303
0.163802
0.165489
0.167391
0.169531
0.171864
0.174357
0.177029
0.179902
0.183003
0.186358
0.189996
0.193948
0.198248
0.202933
0.208038
0.213598
0.219672
0.226245
0.233291
0.240775
0.248649
0.256872
0.265397
0.274173
0.283131
0.292178
0.301192
0.310027
0.318544
0.326919
0.336198
0.345496
0.354212
0.362025
0.368718
0.374157
0.378204
0.380911
0.382354
0.382769
0.38205
0.380257
0.377464
0.373767
0.369282
0.364124
0.358408
0.352243
0.345689
0.338617
0.331251
0.323637
0.31596
0.308387
0.301064
0.294133
0.287712
0.281897
0.276768
0.2724
0.268869
0.266238
0.264744
0.263966
0.264407
0.267537
0.274319
0.287392
0.310739
0.352112
0.438708
0.642342
1.0877
1.15311
1.5945
1.29618
0.754696
0.465731
0.34279
0.289322
0.241923
0.212703
0.188672
0.172321
6.6492
1.40983
0.567028
0.313914
0.215642
0.176357
0.160842
0.155023
0.153067
0.15258
0.152627
0.152869
0.153196
0.153579
0.154012
0.154498
0.155041
0.155647
0.156324
0.157081
0.157927
0.158873
0.159934
0.161123
0.16246
0.163965
0.165663
0.16758
0.169737
0.172071
0.174572
0.177263
0.180168
0.183314
0.186733
0.190456
0.194522
0.198971
0.203847
0.209198
0.215071
0.221501
0.228538
0.236212
0.244465
0.253261
0.262569
0.27236
0.282604
0.293248
0.304209
0.315359
0.326543
0.337608
0.348368
0.359534
0.371986
0.384593
0.396325
0.406304
0.414094
0.419673
0.423264
0.425315
0.426633
0.427364
0.426425
0.423979
0.420292
0.415499
0.409746
0.403183
0.395965
0.388236
0.379975
0.37106
0.361781
0.352305
0.342798
0.333405
0.324264
0.315522
0.307319
0.299785
0.293036
0.28717
0.282295
0.278464
0.275992
0.274387
0.274238
0.276588
0.282942
0.296525
0.321646
0.367269