/*--------------------------------*- C++ -*----------------------------------*\
| =========                 |                                                 |
| \\      /  F ield         | OpenFOAM: The Open Source CFD Toolbox           |
|  \\    /   O peration     | Version:  v2106                                 |
|   \\  /    A nd           | Website:  www.openfoam.com                      |
|    \\/     M anipulation  |                                                 |
\*---------------------------------------------------------------------------*/
FoamFile
{
    version     2.0;
    format      ascii;
    arch        "LSB;label=32;scalar=64";
    class       volScalarField;
    location    "1.3";
    object      p;
}
// * * * * * * * * * * * * * * * * * * * * * * * * * * * * * * * * * * * * * //

dimensions      [1 -1 -2 0 0 0 0];

internalField   nonuniform List<scalar> 
29678
(
14642.3
14495.1
14348
14200.8
14053.7
13906.5
13759.4
13612.2
13465.1
13317.9
13170.7
13023.6
12876.4
12729.3
12582.1
12434.9
12287.8
12140.6
11993.5
11846.3
11699.1
11551.9
11404.8
11257.6
11110.4
10963.2
10816
10668.8
10521.7
10374.5
10227.3
10080.1
9932.86
9785.66
9638.45
9491.23
9344.02
9196.79
9049.57
8902.34
8755.11
8607.87
8460.63
8313.39
8166.14
8018.89
7871.63
7724.37
7577.1
7429.82
7282.54
7135.25
6987.95
6840.64
6693.32
6545.97
6398.6
6251.2
6103.75
5956.23
5808.58
5660.7
5512.34
5362.85
5210.62
5056.24
4893.57
4723.32
4551.07
4383.4
4223.06
4068.65
3917.42
3767.87
3619.13
3470.76
3322.55
3174.44
3026.5
2878.78
2731.36
2584.27
2437.56
2291.24
2145.32
1999.73
1854.15
1709.07
1564.55
1420.65
1277.44
1134.94
993.235
852.353
712.068
572.333
431.503
290.651
151.046
39.8034
-0.142485
-0.30666
-0.512056
-0.675676
-0.865232
-1.04083
-1.22325
-1.40201
-1.58238
-1.76356
14643.9
14496.8
14349.6
14202.5
14055.3
13908.2
13761
13613.8
13466.7
13319.5
13172.3
13025.2
12878
12730.8
12583.6
12436.5
12289.3
12142.1
11994.9
11847.7
11700.5
11553.3
11406
11258.8
11111.6
10964.3
10817.1
10669.8
10522.6
10375.3
10228
10080.7
9933.39
9786.07
9638.74
9491.4
9344.05
9196.68
9049.31
8901.92
8754.52
8607.11
8459.69
8312.26
8164.81
8017.35
7869.87
7722.38
7574.87
7427.35
7279.8
7132.23
6984.63
6837
6689.33
6541.61
6393.81
6245.93
6097.92
5949.74
5801.31
5652.5
5503.13
5353.05
5202.24
5046.63
4887.06
4722.64
4556.23
4392.01
4231.99
4075.93
3923.13
3772.4
3622.84
3473.89
3325.3
3176.93
3028.77
2880.83
2733.16
2585.76
2438.67
2291.9
2145.44
1999.39
1854.12
1709.09
1564.5
1420.36
1276.73
1133.69
991.314
849.507
708.581
568.252
426.958
285.52
144.656
37.2504
-0.155378
-0.312792
-0.513269
-0.677701
-0.863182
-1.03931
-1.2201
-1.39934
-1.57977
-1.76109
14645.6
14498.5
14351.3
14204.1
14057
13909.8
13762.7
13615.5
13468.3
13321.1
13174
13026.8
12879.6
12732.4
12585.2
12438
12290.8
12143.6
11996.3
11849.1
11701.8
11554.6
11407.3
11260.1
11112.8
10965.5
10818.1
10670.8
10523.5
10376.1
10228.7
10081.3
9933.92
9786.49
9639.04
9491.57
9344.08
9196.57
9049.05
8901.51
8753.94
8606.36
8458.75
8311.13
8163.48
8015.81
7868.12
7720.4
7572.66
7424.88
7277.07
7129.22
6981.33
6833.38
6685.37
6537.28
6389.09
6240.76
6092.24
5943.48
5794.38
5644.81
5494.55
5343.3
5190.4
5034.9
4876.98
4716.47
4555.13
4394.93
4237.1
4081.86
3928.83
3777.43
3627.16
3477.65
3328.65
3180.02
3031.72
2883.73
2736.08
2588.77
2441.82
2295.27
2149.11
2003.39
1858.11
1713.03
1568.36
1424.13
1280.39
1137.14
994.366
851.957
709.872
568.059
425.901
284.055
141.295
36.9743
-0.159022
-0.315216
-0.505693
-0.676561
-0.858773
-1.03718
-1.21753
-1.39783
-1.57871
-1.76014
14647.3
14500.1
14353
14205.8
14058.6
13911.5
13764.3
13617.1
13469.9
13322.8
13175.6
13028.4
12881.2
12734
12586.7
12439.5
12292.3
12145
11997.8
11850.5
11703.2
11555.9
11408.6
11261.3
11114
10966.6
10819.2
10671.8
10524.4
10376.9
10229.5
10082
9934.46
9786.92
9639.35
9491.75
9344.13
9196.48
9048.81
8901.11
8753.38
8605.62
8457.83
8310.02
8162.17
8014.3
7866.38
7718.44
7570.46
7422.43
7274.36
7126.24
6978.06
6829.81
6681.48
6533.04
6384.47
6235.74
6086.78
5937.53
5787.91
5637.78
5486.97
5335.24
5182.31
5027.94
4871.37
4713.54
4555.19
4397.42
4241.02
4086.31
3933.2
3781.43
3630.71
3480.78
3331.44
3182.56
3034.07
2885.94
2738.16
2590.72
2443.61
2296.85
2150.45
2004.4
1858.71
1713.35
1568.38
1423.83
1279.71
1136.01
992.743
849.865
707.307
564.943
422.378
280.12
137.041
34.7685
-0.160676
-0.317061
-0.503459
-0.676133
-0.85667
-1.03555
-1.2156
-1.39599
-1.57684
-1.75816
14649
14501.8
14354.7
14207.5
14060.3
13913.1
13766
13618.8
13471.6
13324.4
13177.2
13030
12882.8
12735.5
12588.3
12441.1
12293.8
12146.5
11999.2
11851.9
11704.6
11557.3
11409.9
11262.6
11115.2
10967.7
10820.3
10672.8
10525.3
10377.8
10230.2
10082.7
9935.03
9787.38
9639.69
9491.97
9344.21
9196.42
9048.6
8900.74
8752.84
8604.91
8456.94
8308.94
8160.89
8012.8
7864.68
7716.51
7568.29
7420.02
7271.7
7123.31
6974.85
6826.31
6677.67
6528.91
6380.01
6230.91
6081.58
5931.94
5781.92
5631.41
5480.27
5328.34
5175.47
5021.49
4866.29
4710.3
4553.98
4397.99
4242.84
4088.83
3935.98
3784.21
3633.36
3483.24
3333.7
3184.66
3036.04
2887.8
2739.92
2592.39
2445.21
2298.37
2151.88
2005.75
1859.97
1714.55
1569.49
1424.8
1280.47
1136.48
992.799
849.388
706.185
563.11
419.962
276.981
133.586
32.499
-0.155227
-0.315667
-0.499894
-0.674681
-0.854399
-1.0338
-1.21389
-1.39439
-1.57529
-1.75648
14650.7
14503.5
14356.3
14209.2
14062
13914.8
13767.6
13620.4
13473.2
13326
13178.8
13031.6
12884.4
12737.1
12589.9
12442.6
12295.3
12148
12000.7
11853.4
11706
11558.7
11411.3
11263.8
11116.4
10968.9
10821.4
10673.9
10526.3
10378.7
10231
10083.4
9935.64
9787.88
9640.07
9492.22
9344.33
9196.4
9048.43
8900.41
8752.35
8604.24
8456.09
8307.89
8159.64
8011.35
7863.01
7714.61
7566.16
7417.65
7269.08
7120.43
6971.71
6822.89
6673.97
6524.91
6375.7
6226.3
6076.65
5926.72
5776.42
5625.67
5474.37
5322.43
5169.77
5016.33
4862.14
4707.39
4552.48
4397.8
4243.67
4090.33
3937.84
3786.19
3635.32
3485.12
3335.48
3186.33
3037.61
2889.28
2741.32
2593.72
2446.45
2299.53
2152.94
2006.68
1860.76
1715.17
1569.91
1424.97
1280.34
1136
991.916
848.054
704.345
560.738
417.096
273.493
129.755
29.9796
-0.149306
-0.313223
-0.496268
-0.672913
-0.852288
-1.03205
-1.21227
-1.39286
-1.57377
-1.7549
14652.3
14505.2
14358
14210.8
14063.7
13916.5
13769.3
13622.1
13474.9
13327.7
13180.5
13033.2
12886
12738.7
12591.5
12444.2
12296.9
12149.6
12002.2
11854.9
11707.5
11560.1
11412.6
11265.1
11117.6
10970.1
10822.5
10674.9
10527.3
10379.6
10231.9
10084.1
9936.29
9788.41
9640.49
9492.52
9344.5
9196.42
9048.3
8900.12
8751.89
8603.61
8455.28
8306.89
8158.44
8009.94
7861.38
7712.77
7564.09
7415.34
7266.52
7117.62
6968.64
6819.56
6670.37
6521.05
6371.57
6221.9
6071.99
5921.82
5771.32
5620.44
5469.09
5317.23
5164.82
5011.87
4858.41
4704.62
4550.74
4397.03
4243.72
4090.97
3938.87
3787.43
3636.64
3486.44
3336.77
3187.57
3038.78
2890.39
2742.36
2594.69
2447.35
2300.33
2153.64
2007.27
1861.2
1715.45
1569.99
1424.81
1279.92
1135.27
990.822
846.562
702.389
558.305
414.162
269.993
125.793
27.3935
-0.142617
-0.309753
-0.492345
-0.67064
-0.850172
-1.03029
-1.21072
-1.39144
-1.57241
-1.75354
14654
14506.9
14359.7
14212.5
14065.3
13918.1
13771
13623.8
13476.6
13329.3
13182.1
13034.9
12887.6
12740.4
12593.1
12445.8
12298.4
12151.1
12003.7
11856.3
11708.9
11561.5
11414
11266.5
11118.9
10971.4
10823.7
10676.1
10528.3
10380.6
10232.8
10084.9
9936.98
9789
9640.96
9492.87
9344.71
9196.5
9048.23
8899.89
8751.49
8603.04
8454.52
8305.93
8157.29
8008.58
7859.81
7710.97
7562.06
7413.08
7264.02
7114.88
6965.65
6816.32
6666.88
6517.32
6367.6
6217.69
6067.58
5917.22
5766.58
5615.61
5464.28
5312.54
5160.39
5007.85
4855
4701.93
4548.82
4395.86
4243.2
4090.97
3939.23
3788.04
3637.39
3487.25
3337.59
3188.38
3039.56
2891.13
2743.05
2595.32
2447.91
2300.81
2154.02
2007.53
1861.33
1715.41
1569.76
1424.37
1279.22
1134.3
989.512
844.92
700.321
555.83
411.217
266.532
121.851
24.884
-0.136116
-0.305651
-0.488505
-0.66804
-0.847992
-1.02855
-1.20924
-1.39014
-1.5712
-1.75238
14655.7
14508.6
14361.4
14214.2
14067
13919.8
13772.6
13625.4
13478.2
13331
13183.8
13036.5
12889.3
12742
12594.7
12447.4
12300
12152.7
12005.3
11857.9
11710.4
11562.9
11415.4
11267.9
11120.3
10972.6
10825
10677.2
10529.4
10381.6
10233.7
10085.7
9937.73
9789.64
9641.49
9493.27
9344.99
9196.63
9048.21
8899.72
8751.15
8602.52
8453.82
8305.04
8156.2
8007.28
7858.29
7709.23
7560.1
7410.89
7261.6
7112.22
6962.75
6813.18
6663.51
6513.72
6363.78
6213.68
6063.39
5912.88
5762.14
5611.13
5459.83
5308.22
5156.32
5004.15
4851.77
4699.26
4546.76
4394.38
4242.24
4090.45
3939.06
3788.11
3637.62
3487.58
3337.98
3188.78
3039.96
2891.51
2743.4
2595.61
2448.14
2300.97
2154.09
2007.48
1861.15
1715.08
1569.26
1423.67
1278.29
1133.11
988.029
843.195
698.175
553.36
408.316
263.198
118.004
22.5603
-0.129631
-0.301068
-0.484842
-0.665284
-0.845831
-1.02688
-1.20787
-1.38897
-1.57017
-1.75143
14657.4
14510.3
14363.1
14215.9
14068.7
13921.5
13774.3
13627.1
13479.9
13332.7
13185.4
13038.2
12890.9
12743.6
12596.3
12449
12301.6
12154.3
12006.9
11859.4
11711.9
11564.4
11416.9
11269.3
11121.6
10974
10826.2
10678.4
10530.6
10382.7
10234.7
10086.7
9938.53
9790.35
9642.08
9493.74
9345.33
9196.84
9048.26
8899.61
8750.88
8602.07
8453.18
8304.21
8155.17
8006.04
7856.84
7707.56
7558.2
7408.76
7259.24
7109.62
6959.92
6810.13
6660.24
6510.23
6360.1
6209.82
6059.38
5908.76
5757.95
5606.92
5455.67
5304.19
5152.51
5000.64
4848.64
4696.58
4544.55
4392.64
4240.93
4089.51
3938.42
3787.71
3637.4
3487.48
3337.95
3188.8
3040
2891.55
2743.41
2595.59
2448.07
2300.83
2153.86
2007.16
1860.71
1714.5
1568.52
1422.75
1277.17
1131.76
986.438
841.331
696.015
550.988
405.5
260.117
114.371
20.4973
-0.122485
-0.296519
-0.481425
-0.662577
-0.843845
-1.02536
-1.20665
-1.38797
-1.56931
-1.75067
14659.1
14512
14364.8
14217.6
14070.4
13923.2
13776
13628.8
13481.6
13334.4
13187.1
13039.9
12892.6
12745.3
12598
12450.6
12303.3
12155.9
12008.5
11861
11713.5
11566
11418.4
11270.7
11123.1
10975.3
10827.6
10679.7
10531.8
10383.8
10235.8
10087.6
9939.41
9791.12
9642.75
9494.29
9345.75
9197.11
9048.39
8899.58
8750.69
8601.7
8452.62
8303.46
8154.21
8004.87
7855.46
7705.96
7556.37
7406.7
7256.95
7107.11
6957.18
6807.16
6657.05
6506.84
6356.53
6206.1
6055.53
5904.81
5753.94
5602.91
5451.71
5300.35
5148.85
4997.24
4845.55
4693.85
4542.19
4390.66
4239.31
4088.21
3937.4
3786.91
3636.77
3486.98
3337.55
3188.46
3039.7
2891.25
2743.11
2595.27
2447.7
2300.4
2153.36
2006.56
1860.01
1713.68
1567.56
1421.63
1275.87
1130.28
984.752
839.422
693.891
548.664
402.87
257.303
111.147
18.738
-0.114213
-0.293129
-0.478346
-0.660211
-0.842208
-1.02408
-1.20566
-1.38716
-1.56863
-1.75007
14660.9
14513.7
14366.5
14219.3
14072.1
13924.9
13777.7
13630.5
13483.3
13336.1
13188.8
13041.6
12894.3
12747
12599.7
12452.3
12304.9
12157.5
12010.1
11862.6
11715.1
11567.5
11419.9
11272.3
11124.5
10976.8
10828.9
10681
10533.1
10385
10236.9
10088.7
9940.37
9791.98
9643.5
9494.92
9346.25
9197.48
9048.61
8899.64
8750.57
8601.41
8452.14
8302.78
8153.33
8003.78
7854.14
7704.42
7554.6
7404.71
7254.72
7104.65
6954.5
6804.26
6653.94
6503.54
6353.05
6202.46
6051.77
5900.97
5750.05
5599.02
5447.87
5296.61
5145.27
4993.87
4842.44
4691.02
4539.68
4388.46
4237.41
4086.59
3936.03
3785.75
3635.79
3486.14
3336.81
3187.79
3039.07
2890.65
2742.52
2594.65
2447.05
2299.7
2152.6
2005.72
1859.07
1712.63
1566.39
1420.33
1274.42
1128.67
982.986
837.486
691.799
546.443
400.436
254.799
108.419
17.3065
-0.105755
-0.292196
-0.475674
-0.658696
-0.841084
-1.02315
-1.20493
-1.38656
-1.56812
-1.74963
14662.6
14515.4
14368.2
14221
14073.8
13926.7
13779.5
13632.3
13485
13337.8
13190.6
13043.3
12896
12748.7
12601.4
12454
12306.6
12159.2
12011.8
11864.3
11716.7
11569.1
11421.5
11273.8
11126.1
10978.3
10830.4
10682.4
10534.4
10386.3
10238.1
10089.8
9941.41
9792.92
9644.33
9495.64
9346.84
9197.94
9048.92
8899.79
8750.56
8601.21
8451.75
8302.19
8152.53
8002.76
7852.9
7702.95
7552.91
7402.78
7252.56
7102.26
6951.88
6801.43
6650.9
6500.3
6349.64
6198.9
6048.09
5897.2
5746.23
5595.19
5444.08
5292.91
5141.7
4990.47
4839.26
4688.09
4537
4386.05
4235.27
4084.7
3934.36
3784.28
3634.48
3484.97
3335.74
3186.81
3038.15
2889.76
2741.63
2593.77
2446.14
2298.75
2151.59
2004.65
1857.92
1711.39
1565.04
1418.86
1272.84
1126.96
981.149
835.525
689.743
544.325
398.202
252.607
106.193
16.1917
-0.100839
-0.293899
-0.473534
-0.658292
-0.840511
-1.02262
-1.20451
-1.38618
-1.56778
-1.74931
14664.3
14517.1
14370
14222.8
14075.6
13928.4
13781.2
13634
13486.8
13339.5
13192.3
13045
12897.7
12750.4
12603.1
12455.7
12308.4
12160.9
12013.5
11866
11718.4
11570.8
11423.2
11275.4
11127.7
10979.8
10831.9
10683.9
10535.8
10387.6
10239.4
10091
9942.54
9793.96
9645.27
9496.47
9347.54
9198.5
9049.33
8900.05
8750.64
8601.11
8451.46
8301.7
8151.82
8001.83
7851.74
7701.56
7551.28
7400.91
7250.45
7099.92
6949.32
6798.64
6647.91
6497.12
6346.27
6195.38
6044.45
5893.47
5742.45
5591.39
5440.31
5289.21
5138.11
4987.03
4835.99
4685.03
4534.17
4383.45
4232.9
4082.55
3932.42
3782.53
3632.89
3483.51
3334.39
3185.54
3036.94
2888.59
2740.49
2592.62
2444.98
2297.57
2150.36
2003.36
1856.56
1709.95
1563.51
1417.24
1271.12
1125.14
979.242
833.526
687.71
542.282
396.134
250.689
104.431
15.3577
-0.101265
-0.296145
-0.472988
-0.659222
-0.84027
-1.02248
-1.20438
-1.38599
-1.56758
-1.74911
14666
14518.9
14371.7
14224.5
14077.3
13930.1
13782.9
13635.7
13488.5
13341.3
13194
13046.8
12899.5
12752.2
12604.9
12457.5
12310.1
12162.7
12015.2
11867.7
11720.1
11572.5
11424.9
11277.1
11129.3
10981.5
10833.5
10685.5
10537.3
10389.1
10240.8
10092.3
9943.78
9795.11
9646.32
9497.4
9348.35
9199.18
9049.86
8900.42
8750.84
8601.12
8451.28
8301.3
8151.21
8000.99
7850.67
7700.24
7549.71
7399.09
7248.4
7097.63
6946.79
6795.89
6644.94
6493.95
6342.93
6191.89
6040.82
5889.75
5738.67
5587.59
5436.52
5285.47
5134.46
4983.51
4832.63
4681.85
4531.2
4380.67
4230.33
4080.17
3930.23
3780.51
3631.02
3481.78
3332.77
3184
3035.47
2887.17
2739.09
2591.24
2443.59
2296.15
2148.91
2001.87
1855
1708.32
1561.81
1415.46
1269.26
1123.21
977.258
831.481
685.667
540.272
394.187
248.98
103.07
14.7693
-0.104741
-0.299291
-0.473869
-0.660894
-0.840328
-1.02283
-1.20448
-1.38596
-1.56751
-1.74899
14667.8
14520.6
14373.4
14226.2
14079.1
13931.9
13784.7
13637.5
13490.3
13343.1
13195.8
13048.6
12901.3
12754
12606.7
12459.3
12311.9
12164.5
12017
11869.5
11721.9
11574.3
11426.6
11278.9
11131.1
10983.2
10835.2
10687.1
10538.9
10390.7
10242.3
10093.8
9945.13
9796.38
9647.49
9498.46
9349.29
9199.98
9050.52
8900.91
8751.15
8601.25
8451.2
8301.02
8150.69
8000.24
7849.67
7698.99
7548.21
7397.34
7246.38
7095.36
6944.28
6793.15
6641.98
6490.79
6339.58
6188.38
6037.18
5886
5734.85
5583.74
5432.67
5281.67
5130.73
4979.89
4829.14
4678.52
4528.03
4377.7
4227.54
4077.57
3927.8
3778.24
3628.91
3479.79
3330.89
3182.21
3033.75
2885.5
2737.46
2589.62
2441.98
2294.53
2147.26
2000.17
1853.26
1706.52
1559.94
1413.52
1267.25
1121.15
975.156
829.358
683.538
538.246
392.333
247.375
101.995
14.3702
-0.10904
-0.303569
-0.475452
-0.663302
-0.840476
-1.02362
-1.20469
-1.38603
-1.56752
-1.74893
14669.5
14522.4
14375.2
14228
14080.8
13933.6
13786.4
13639.3
13492
13344.8
13197.6
13050.4
12903.1
12755.8
12608.5
12461.1
12313.7
12166.3
12018.8
11871.3
11723.8
11576.1
11428.5
11280.7
11132.9
10985
10836.9
10688.8
10540.6
10392.3
10243.9
10095.3
9946.61
9797.77
9648.79
9499.65
9350.36
9200.92
9051.31
8901.54
8751.61
8601.51
8451.26
8300.85
8150.29
7999.6
7848.77
7697.82
7546.77
7395.63
7244.4
7093.11
6941.77
6790.39
6638.99
6487.59
6336.19
6184.82
6033.48
5882.19
5730.96
5579.81
5428.74
5277.76
5126.89
4976.13
4825.5
4675.02
4524.69
4374.53
4224.54
4074.74
3925.14
3775.74
3626.55
3477.56
3328.77
3180.19
3031.8
2883.61
2735.61
2587.8
2440.17
2292.71
2145.42
1998.3
1851.34
1704.54
1557.9
1411.42
1265.09
1118.93
972.889
827.096
681.288
536.122
390.44
245.702
101
14.0292
-0.112775
-0.309242
-0.476886
-0.666279
-0.840765
-1.02475
-1.20475
-1.38612
-1.56754
-1.7489
14671.3
14524.1
14376.9
14229.7
14082.6
13935.4
13788.2
13641
13493.8
13346.6
13199.4
13052.2
12904.9
12757.6
12610.3
12463
12315.6
12168.2
12020.7
11873.2
11725.7
11578
11430.4
11282.6
11134.8
10986.8
10838.8
10690.7
10542.4
10394.1
10245.6
10097
9948.22
9799.3
9650.23
9500.99
9351.59
9202.01
9052.25
8902.32
8752.2
8601.91
8451.45
8300.81
8150.01
7999.06
7847.96
7696.73
7545.4
7393.96
7242.45
7090.87
6939.25
6787.61
6635.96
6484.32
6332.72
6181.16
6029.67
5878.27
5726.95
5575.75
5424.66
5273.7
5122.88
4972.21
4821.69
4671.33
4521.15
4371.15
4221.33
4071.7
3922.26
3773.01
3623.96
3475.1
3326.43
3177.94
3029.64
2881.52
2733.56
2585.78
2438.16
2290.7
2143.39
1996.24
1849.24
1702.39
1555.69
1409.15
1262.75
1116.54
970.447
824.663
678.869
533.773
388.313
243.681
99.847
13.5634
-0.115714
-0.316195
-0.477498
-0.669713
-0.84075
-1.02598
-1.20454
-1.38624
-1.56753
-1.74889
14673
14525.9
14378.7
14231.5
14084.3
13937.2
13790
13642.8
13495.6
13348.4
13201.2
13054
12906.7
12759.5
12612.2
12464.9
12317.5
12170.1
12022.7
11875.2
11727.6
11580
11432.3
11284.6
11136.7
10988.8
10840.8
10692.6
10544.4
10396
10247.5
10098.8
9949.97
9800.98
9651.82
9502.49
9352.97
9203.26
9053.36
8903.26
8752.96
8602.47
8451.78
8300.91
8149.85
7998.63
7847.25
7695.73
7544.08
7392.34
7240.51
7088.62
6936.7
6784.77
6632.85
6480.96
6329.13
6177.38
6025.72
5874.18
5722.77
5571.51
5420.4
5269.45
5118.68
4968.08
4817.66
4667.44
4517.39
4367.54
4217.89
4068.42
3919.14
3770.05
3621.15
3472.42
3323.87
3175.49
3027.28
2879.22
2731.33
2583.58
2435.98
2288.52
2141.2
1994.02
1846.98
1700.08
1553.32
1406.71
1260.24
1113.97
967.816
822.018
676.212
531.117
385.846
241.181
98.1504
12.847
-0.117834
-0.324197
-0.477147
-0.672832
-0.840276
-1.02698
-1.20403
-1.38629
-1.56741
-1.74885
14674.8
14527.6
14380.4
14233.3
14086.1
13938.9
13791.8
13644.6
13497.4
13350.2
13203.1
13055.8
12908.6
12761.4
12614.1
12466.8
12319.4
12172.1
12024.6
11877.2
11729.6
11582
11434.4
11286.6
11138.8
10990.9
10842.8
10694.7
10546.4
10398
10249.5
10100.7
9951.87
9802.82
9653.59
9504.16
9354.53
9204.69
9054.65
8904.38
8753.9
8603.2
8452.28
8301.16
8149.84
7998.33
7846.64
7694.8
7542.83
7390.75
7238.58
7086.36
6934.11
6781.86
6629.63
6477.47
6325.39
6173.42
6021.58
5869.89
5718.37
5567.04
5415.9
5264.96
5114.23
4963.71
4813.39
4663.29
4513.4
4363.71
4214.22
4064.92
3915.81
3766.88
3618.13
3469.54
3321.12
3172.85
3024.73
2876.76
2728.92
2581.21
2433.64
2286.19
2138.86
1991.65
1844.57
1697.61
1550.79
1404.1
1257.55
1111.2
964.973
819.119
673.272
528.11
383.01
238.083
95.6718
11.7518
-0.119095
-0.33274
-0.475708
-0.674354
-0.839838
-1.02746
-1.20315
-1.38614
-1.56708
-1.74876
14676.5
14529.4
14382.2
14235
14087.9
13940.7
13793.6
13646.4
13499.2
13352.1
13204.9
13057.7
12910.5
12763.3
12616
12468.7
12321.4
12174.1
12026.7
11879.2
11731.7
11584.1
11436.5
11288.8
11140.9
10993
10845
10696.9
10548.6
10400.2
10251.6
10102.9
9953.94
9804.84
9655.53
9506.02
9356.28
9206.32
9056.13
8905.7
8755.03
8604.11
8452.96
8301.58
8149.97
7998.16
7846.15
7693.97
7541.64
7389.19
7236.66
7084.06
6931.45
6778.84
6626.29
6473.81
6321.46
6169.24
6017.2
5865.35
5713.71
5562.3
5411.12
5260.19
5109.5
4959.06
4808.85
4658.88
4509.14
4359.62
4210.3
4061.18
3912.25
3763.49
3614.9
3466.47
3318.18
3170.03
3022.02
2874.13
2726.35
2578.7
2431.15
2283.71
2136.37
1989.14
1842.01
1695
1548.1
1401.33
1254.69
1108.24
961.901
815.94
670.008
524.69
379.685
234.288
92.1838
9.98955
-0.119144
-0.340569
-0.474472
-0.674487
-0.837894
-1.02656
-1.20176
-1.3856
-1.56646
-1.74864
14678.3
14531.1
14383.9
14236.8
14089.6
13942.5
13795.4
13648.2
13501.1
13353.9
13206.8
13059.6
12912.4
12765.2
12618
12470.7
12323.4
12176.1
12028.7
11881.3
11733.8
11586.3
11438.7
11291
11143.2
10995.3
10847.3
10699.2
10550.9
10402.5
10253.9
10105.1
9956.19
9807.04
9657.67
9508.08
9358.25
9208.16
9057.83
8907.23
8756.37
8605.23
8453.84
8302.18
8150.27
7998.13
7845.77
7693.22
7540.51
7387.66
7234.72
7081.71
6928.7
6775.7
6622.77
6469.96
6317.29
6164.8
6012.53
5860.5
5708.72
5557.23
5406.01
5255.09
5104.45
4954.09
4804
4654.18
4504.6
4355.26
4206.14
4057.21
3908.47
3759.9
3611.48
3463.21
3315.07
3167.05
3019.15
2871.35
2723.65
2576.04
2428.53
2281.1
2133.76
1986.5
1839.33
1692.25
1545.27
1398.4
1251.65
1105.07
958.59
812.467
666.391
520.799
375.765
230.288
87.6509
7.47565
-0.125655
-0.339654
-0.473663
-0.671835
-0.834938
-1.02435
-1.19968
-1.3845
-1.56555
-1.74847
14680
14532.8
14385.7
14238.5
14091.4
13944.3
13797.1
13650
13502.9
13355.8
13208.6
13061.5
12914.3
12767.1
12619.9
12472.7
12325.5
12178.2
12030.8
11883.5
11736
11588.5
11440.9
11293.3
11145.5
10997.7
10849.7
10701.6
10553.3
10404.9
10256.4
10107.6
9958.62
9809.44
9660.03
9510.36
9360.44
9210.24
9059.77
8909
8757.94
8606.58
8454.93
8302.98
8150.76
7998.26
7845.53
7692.58
7539.44
7386.15
7232.75
7079.3
6925.83
6772.4
6619.05
6465.85
6312.83
6160.04
6007.51
5855.28
5703.36
5551.77
5400.52
5249.61
5099.02
4948.76
4798.81
4649.16
4499.77
4350.63
4201.71
4053
3904.47
3756.1
3607.88
3459.78
3311.8
3163.93
3016.14
2868.44
2720.83
2573.28
2425.8
2278.38
2131.03
1983.75
1836.53
1689.38
1542.31
1395.33
1248.44
1101.71
955.052
808.713
662.438
516.569
371.215
225.427
82.1043
4.40364
-0.0998236
-0.330156
-0.46596
-0.665764
-0.830611
-1.02063
-1.19696
-1.3828
-1.5644
-1.74822
14681.7
14534.6
14387.4
14240.3
14093.2
13946
13798.9
13651.8
13504.7
13357.6
13210.5
13063.4
12916.2
12769.1
12621.9
12474.7
12327.5
12180.3
12033
11885.7
11738.3
11590.8
11443.3
11295.7
11148
11000.1
10852.2
10704.1
10555.9
10407.5
10259
10110.2
9961.26
9812.06
9662.6
9512.88
9362.88
9212.58
9061.96
8911.03
8759.77
8608.18
8456.26
8304.01
8151.44
7998.57
7845.43
7692.03
7538.43
7384.65
7230.75
7076.79
6922.81
6768.89
6615.08
6461.44
6308.03
6154.9
6002.09
5849.63
5697.55
5545.86
5394.58
5243.68
5093.18
4943.04
4793.24
4643.78
4494.61
4345.7
4197.02
4048.55
3900.25
3752.11
3604.1
3456.19
3308.39
3160.67
3013.02
2865.43
2717.89
2570.41
2422.97
2275.57
2128.21
1980.9
1833.63
1686.4
1539.23
1392.13
1245.09
1098.17
951.3
804.695
658.149
511.928
366.204
220.029
76.5728
1.13734
-0.115664
-0.340434
-0.467012
-0.657371
-0.825428
-1.01524
-1.19367
-1.38054
-1.5631
-1.74787
14683.5
14536.3
14389.1
14242
14094.9
13947.8
13800.7
13653.6
13506.5
13359.4
13212.4
13065.3
12918.2
12771.1
12623.9
12476.8
12329.6
12182.4
12035.2
11887.9
11740.6
11593.2
11445.7
11298.1
11150.5
11002.7
10854.9
10706.8
10558.7
10410.3
10261.8
10113.1
9964.11
9814.9
9665.43
9515.66
9365.59
9215.19
9064.44
8913.35
8761.89
8610.07
8457.86
8305.29
8152.36
7999.08
7845.49
7691.6
7537.48
7383.16
7228.7
7074.16
6919.61
6765.14
6610.79
6456.66
6302.81
6149.29
5996.16
5843.45
5691.2
5539.42
5388.1
5237.25
5086.84
4936.85
4787.25
4638.01
4489.1
4340.45
4192.05
4043.85
3895.82
3747.92
3600.15
3452.46
3304.85
3157.29
3009.79
2862.32
2714.88
2567.46
2420.07
2272.69
2125.33
1977.98
1830.65
1683.35
1536.07
1388.82
1241.61
1094.48
947.365
800.442
653.557
506.908
360.711
214.04
72.0646
0.402628
-0.0482416
-0.209983
-0.429415
-0.628211
-0.81546
-1.00779
-1.18995
-1.3779
-1.56178
-1.74745
14685.2
14538
14390.9
14243.7
14096.6
13949.6
13802.5
13655.4
13508.3
13361.3
13214.2
13067.2
12920.1
12773.1
12626
12478.9
12331.8
12184.6
12037.4
11890.2
11742.9
11595.6
11448.2
11300.7
11153.1
11005.4
10857.6
10709.7
10561.6
10413.3
10264.8
10116.1
9967.18
9817.99
9668.51
9518.71
9368.59
9218.11
9067.24
8915.99
8764.33
8612.26
8459.77
8306.86
8153.53
7999.81
7845.72
7691.3
7536.6
7381.67
7226.57
7071.39
6916.19
6761.08
6606.13
6451.44
6297.07
6143.11
5989.62
5836.65
5684.21
5532.33
5381
5230.22
5079.94
4930.15
4780.79
4631.82
4483.2
4334.88
4186.79
4038.9
3891.17
3743.56
3596.04
3448.59
3301.19
3153.82
3006.47
2859.13
2711.79
2564.45
2417.11
2269.75
2122.39
1975.01
1827.63
1680.24
1532.84
1385.44
1238.04
1090.68
943.294
796.013
648.702
501.53
354.657
207.328
67.8693
0.364593
-0.0886051
-0.1834
-0.449515
-0.614648
-0.812371
-1.00182
-1.18709
-1.37546
-1.56062
-1.74703
14686.9
14539.7
14392.6
14245.5
14098.4
13951.3
13804.2
13657.2
13510.2
13363.1
13216.1
13069.1
12922.1
12775.1
12628
12481
12333.9
12186.8
12039.7
11892.6
11745.3
11598.1
11450.8
11303.3
11155.9
11008.2
10860.5
10712.6
10564.6
10416.4
10268
10119.4
9970.49
9821.33
9671.86
9522.07
9371.91
9221.36
9070.39
8918.98
8767.12
8614.81
8462.01
8308.74
8154.99
8000.79
7846.17
7691.15
7535.8
7380.18
7224.36
7068.44
6912.5
6756.66
6601.01
6445.66
6290.71
6136.25
5982.36
5829.08
5676.46
5524.49
5373.18
5222.49
5072.39
4922.84
4773.78
4625.16
4476.9
4328.94
4181.23
4033.7
3886.31
3739.02
3591.79
3444.61
3297.44
3150.27
3003.1
2855.9
2708.67
2561.41
2414.12
2266.79
2119.42
1972.02
1824.57
1677.09
1529.58
1382.03
1234.43
1086.82
939.14
791.467
643.688
495.903
348.226
200.019
63.2577
0.264851
-0.0590149
-0.195952
-0.439435
-0.608811
-0.811115
-0.998059
-1.1853
-1.37367
-1.55979
-1.7467
14688.5
14541.4
14394.2
14247.1
14100.1
13953
13806
13659
13512
13365
13218
13071
12924
12777
12630.1
12483.1
12336.1
12189.1
12042
11894.9
11747.8
11600.6
11453.4
11306.1
11158.7
11011.2
10863.5
10715.8
10567.8
10419.7
10271.4
10122.9
9974.05
9824.94
9675.52
9525.74
9375.56
9224.97
9073.91
8922.37
8770.31
8617.75
8464.64
8310.99
8156.79
8002.07
7846.84
7691.16
7535.08
7378.68
7222.05
7065.27
6908.48
6751.79
6595.32
6439.21
6283.59
6128.56
5974.21
5820.61
5667.79
5515.76
5364.48
5213.95
5064.09
4914.86
4766.18
4617.97
4470.15
4322.64
4175.35
4028.24
3881.24
3734.31
3587.42
3440.53
3293.62
3146.67
2999.68
2852.63
2705.53
2558.36
2411.12
2263.82
2116.45
1969.02
1821.52
1673.96
1526.32
1378.61
1230.82
1082.95
934.976
786.902
638.642
490.203
341.681
192.472
58.495
0.186693
-0.0585324
-0.211696
-0.436319
-0.608941
-0.810099
-0.995654
-1.18403
-1.37239
-1.55921
-1.74646
14690.2
14543
14395.9
14248.8
14101.8
13954.7
13807.7
13660.7
13513.7
13366.8
13219.8
13072.9
12926
12779
12632.1
12485.2
12338.3
12191.3
12044.3
11897.3
11750.3
11603.2
11456.1
11308.9
11161.6
11014.2
10866.7
10719
10571.2
10423.2
10275
10126.6
9977.86
9828.84
9679.48
9529.74
9379.59
9228.97
9077.85
8926.19
8773.96
8621.13
8467.69
8313.64
8158.96
8003.67
7847.79
7691.37
7534.47
7377.18
7219.61
7061.85
6904.06
6746.37
6588.96
6431.96
6275.55
6119.86
5964.99
5811.04
5658.02
5505.95
5354.77
5204.45
5054.93
4906.12
4757.91
4610.21
4462.92
4315.94
4169.17
4022.54
3875.99
3729.47
3582.94
3436.38
3289.75
3143.04
2996.25
2849.37
2702.39
2555.32
2408.15
2260.88
2113.52
1966.06
1818.51
1670.86
1523.11
1375.24
1227.26
1079.15
930.881
782.425
633.706
484.654
335.341
185.336
53.9322
0.129203
-0.0595815
-0.228612
-0.436241
-0.611923
-0.809777
-0.994928
-1.1834
-1.37163
-1.55888
-1.74632
14691.8
14544.7
14397.5
14250.4
14103.4
13956.4
13809.4
13662.4
13515.5
13368.6
13221.7
13074.8
12927.9
12781
12634.2
12487.3
12340.5
12193.6
12046.7
11899.8
11752.9
11605.9
11458.8
11311.8
11164.6
11017.3
10869.9
10722.4
10574.7
10426.9
10278.8
10130.5
9981.94
9833.04
9683.78
9534.11
9384
9233.39
9082.24
8930.48
8778.09
8625.01
8471.24
8316.77
8161.57
8005.66
7849.05
7691.8
7533.98
7375.67
7217
7058.11
6899.15
6740.31
6581.76
6423.72
6266.38
6109.91
5954.45
5800.11
5646.91
5494.84
5343.84
5193.83
5044.74
4896.48
4748.88
4601.82
4455.18
4308.83
4162.67
4016.6
3870.57
3724.51
3578.4
3432.19
3285.86
3139.42
2992.85
2846.14
2699.3
2552.32
2405.22
2257.99
2110.63
1963.15
1815.55
1667.82
1519.96
1371.96
1223.81
1075.48
926.936
778.137
629.02
479.445
329.404
178.761
49.8259
0.105471
-0.05905
-0.239062
-0.434948
-0.614699
-0.809275
-0.994834
-1.18316
-1.37126
-1.55872
-1.74627
14693.4
14546.2
14399.1
14252.1
14105
13958
13811.1
13664.1
13517.2
13370.3
13223.5
13076.6
12929.8
12783
12636.2
12489.4
12342.6
12195.9
12049.1
11902.3
11755.4
11608.6
11461.6
11314.7
11167.7
11020.5
10873.3
10725.9
10578.4
10430.8
10282.9
10134.7
9986.29
9837.54
9688.41
9538.86
9388.84
9238.27
9087.12
8935.3
8782.77
8629.47
8475.36
8320.43
8164.68
8008.09
7850.68
7692.5
7533.62
7374.15
7214.22
7053.99
6893.66
6733.44
6573.56
6414.26
6255.8
6098.41
5942.28
5787.53
5634.17
5482.18
5331.45
5181.9
5033.39
4885.83
4739
4592.74
4446.9
4301.31
4155.86
4010.45
3865
3719.47
3573.81
3427.99
3282
3135.84
2989.49
2842.97
2696.27
2549.4
2402.37
2255.17
2107.83
1960.33
1812.69
1664.89
1516.93
1368.81
1220.5
1071.98
923.208
774.136
624.699
474.749
324.042
173.114
46.3759
0.114171
-0.0560569
-0.24214
-0.433723
-0.616657
-0.80876
-0.995048
-1.18316
-1.37114
-1.55871
-1.74629
14694.9
14547.8
14400.7
14253.6
14106.6
13959.6
13812.7
13665.8
13518.9
13372.1
13225.3
13078.5
12931.7
12785
12638.2
12491.5
12344.8
12198.1
12051.4
11904.7
11758
11611.3
11464.5
11317.7
11170.8
11023.8
10876.8
10729.6
10582.3
10434.8
10287.1
10139.1
9990.91
9842.35
9693.4
9544.01
9394.12
9243.65
9092.53
8940.69
8788.06
8634.56
8480.12
8324.73
8168.38
8011.05
7852.75
7693.51
7533.43
7372.61
7211.21
7049.42
6887.47
6725.61
6564.09
6403.25
6243.43
6084.94
5928.02
5772.85
5619.42
5467.61
5317.29
5168.37
5020.67
4874.02
4728.17
4582.92
4438.05
4293.37
4148.76
4004.11
3859.34
3714.39
3569.23
3423.84
3278.21
3132.34
2986.23
2839.9
2693.35
2546.58
2399.62
2252.47
2105.14
1957.63
1809.94
1662.08
1514.04
1365.81
1217.37
1068.7
919.759
770.496
620.804
470.783
319.482
168.578
43.7543
0.127594
-0.0512387
-0.242319
-0.432322
-0.617879
-0.808373
-0.995332
-1.18331
-1.37117
-1.55878
-1.74636
14696.4
14549.3
14402.2
14255.2
14108.2
13961.2
13814.3
13667.4
13520.6
13373.8
13227
13080.3
12933.6
12786.9
12640.2
12493.6
12347
12200.4
12053.8
11907.2
11760.6
11614
11467.4
11320.7
11174
11027.2
10880.3
10733.4
10586.2
10439
10291.5
10143.8
9995.8
9847.48
9698.76
9549.58
9399.87
9249.54
9098.52
8946.71
8794.02
8640.35
8485.62
8329.75
8172.76
8014.62
7855.32
7694.9
7533.43
7371.05
7207.93
7044.3
6880.4
6716.52
6552.95
6390.15
6228.65
6068.84
5911.01
5755.4
5601.98
5450.57
5300.94
5152.94
5006.4
4860.99
4716.42
4572.39
4428.67
4285.06
4141.42
3997.64
3853.62
3709.32
3564.71
3419.78
3274.53
3128.97
2983.11
2836.97
2690.56
2543.9
2397.01
2249.9
2102.58
1955.05
1807.33
1659.42
1511.3
1362.99
1214.45
1065.67
916.614
767.263
617.367
467.625
315.847
165.32
42.1052
0.139455
-0.0496309
-0.241901
-0.431576
-0.618821
-0.808347
-0.99571
-1.1836
-1.37135
-1.55893
-1.74648
14697.9
14550.8
14403.7
14256.6
14109.7
13962.7
13815.8
13669