/*--------------------------------*- C++ -*----------------------------------*\
| =========                 |                                                 |
| \\      /  F ield         | OpenFOAM: The Open Source CFD Toolbox           |
|  \\    /   O peration     | Version:  v2106                                 |
|   \\  /    A nd           | Website:  www.openfoam.com                      |
|    \\/     M anipulation  |                                                 |
\*---------------------------------------------------------------------------*/
FoamFile
{
    version     2.0;
    format      ascii;
    arch        "LSB;label=32;scalar=64";
    class       volScalarField;
    location    "1.3";
    object      p_rgh;
}
// * * * * * * * * * * * * * * * * * * * * * * * * * * * * * * * * * * * * * //

dimensions      [1 -1 -2 0 0 0 0];

internalField   nonuniform List<scalar> 
29678
(
0.844709
0.845412
0.846509
0.847232
0.847287
0.846344
0.844207
0.840798
0.836112
0.830168
0.823007
0.814698
0.805305
0.794882
0.783522
0.771155
0.757585
0.742608
0.726032
0.707666
0.687312
0.664745
0.639747
0.612194
0.581989
0.549006
0.513137
0.474278
0.432351
0.387304
0.339167
0.28812
0.234726
0.180366
0.12286
0.0587409
-0.00952971
-0.0806386
-0.155014
-0.233134
-0.31518
-0.401207
-0.491342
-0.585655
-0.68426
-0.787338
-0.89515
-1.00806
-1.12655
-1.25125
-1.38297
-1.5228
-1.67216
-1.83306
-2.00834
-2.20214
-2.42059
-2.67296
-2.97401
-3.34924
-3.84783
-4.5757
-5.78527
-8.1206
-13.2056
-20.4347
-35.9504
-59.0568
-84.1584
-104.679
-117.865
-125.127
-129.201
-131.607
-133.191
-134.412
-135.477
-136.431
-137.23
-137.799
-138.069
-138.006
-137.567
-136.735
-135.509
-133.943
-132.375
-130.301
-127.676
-124.426
-120.481
-115.839
-110.39
-104.122
-97.2569
-89.8423
-83.522
-77.2242
-69.6789
-0.284827
-0.0505143
-0.0307537
-0.0522125
-0.0318947
-0.0375135
-0.029178
-0.0276538
-0.0224746
-0.0189119
-0.0161539
2.5193
2.51729
2.51337
2.50737
2.49989
2.49116
2.48111
2.46946
2.4559
2.44009
2.42178
2.40081
2.37706
2.35011
2.32008
2.28691
2.24983
2.20833
2.16198
2.11035
2.05298
1.98919
1.91831
1.84027
1.75485
1.66153
1.56011
1.45019
1.33148
1.20365
1.06651
0.920009
0.764613
0.598927
0.419752
0.225791
0.0211463
-0.192776
-0.417323
-0.653267
-0.901009
-1.16079
-1.43291
-1.71762
-2.0153
-2.3265
-2.65197
-2.99276
-3.35025
-3.72622
-4.12294
-4.54338
-4.99151
-5.47281
-5.99505
-6.56933
-7.21156
-7.94457
-8.80168
-9.83321
-11.118
-12.7795
-14.9931
-17.9218
-21.5836
-30.046
-42.4636
-59.7348
-78.9892
-96.0621
-108.933
-117.839
-123.492
-127.074
-129.487
-131.278
-132.724
-133.942
-134.955
-135.741
-136.268
-136.513
-136.451
-136.077
-135.386
-134.286
-132.408
-130.283
-127.724
-124.717
-121.194
-117.088
-112.311
-106.968
-100.744
-93.9231
-88.0665
-82.3552
-76.0692
-0.266803
-0.0634061
-0.0368859
-0.0534251
-0.0339197
-0.0354634
-0.0276571
-0.0245042
-0.0198059
-0.0162966
-0.0136876
4.19443
4.19059
4.18327
4.17254
4.15949
4.14458
4.12774
4.10852
4.08631
4.06049
4.03062
3.99645
3.95813
3.91528
3.86693
3.81242
3.75106
3.68225
3.60536
3.51975
3.42478
3.31973
3.20378
3.07598
2.93512
2.78106
2.6137
2.43216
2.23595
2.02446
1.79715
1.55357
1.29309
1.0121
0.710295
0.390625
0.0533585
-0.301852
-0.675838
-1.06926
-1.48258
-1.91616
-2.37036
-2.84561
-3.34249
-3.86186
-4.40491
-4.9733
-5.56916
-6.19527
-6.85516
-7.55335
-8.29591
-9.09118
-9.95094
-10.8919
-11.9374
-13.1199
-14.4842
-16.0941
-18.0425
-20.467
-23.5713
-27.6768
-33.4244
-41.7724
-52.5434
-65.904
-80.0915
-93.1411
-103.826
-111.911
-117.791
-122.047
-125.164
-127.521
-129.374
-130.853
-132.007
-132.844
-133.349
-133.506
-133.301
-132.709
-131.711
-130.28
-128.413
-126.34
-123.87
-120.947
-117.532
-113.635
-109.259
-104.518
-99.4532
-94.1165
-89.1238
-83.8199
-79.4299
-0.245717
-0.067048
-0.03931
-0.0458492
-0.0327802
-0.0310545
-0.0255222
-0.0219352
-0.0182953
-0.0152426
-0.0127374
5.87086
5.86534
5.8549
5.83974
5.8215
5.80082
5.77762
5.75121
5.72065
5.68514
5.64451
5.59883
5.54728
5.48886
5.4222
5.3462
5.26044
5.16423
5.05675
4.93714
4.80455
4.65826
4.49745
4.3206
4.12621
3.9133
3.68066
3.42798
3.15481
2.86009
2.543
2.20301
1.83758
1.44362
1.02206
0.576302
0.105412
-0.391497
-0.915239
-1.46648
-2.04576
-2.65349
-3.29013
-3.95619
-4.65242
-5.37991
-6.14019
-6.93539
-7.76826
-8.64232
-9.56203
-10.533
-11.5629
-12.6619
-13.8446
-15.1314
-16.5504
-18.139
-19.9468
-22.041
-24.5145
-27.4959
-31.1596
-35.7369
-41.5114
-48.73
-58.1531
-68.8386
-80.0302
-90.6567
-99.9049
-107.463
-113.419
-118.042
-121.614
-124.394
-126.587
-128.319
-129.656
-130.632
-131.265
-131.558
-131.512
-131.12
-130.377
-129.277
-127.819
-126.022
-123.841
-121.246
-118.22
-114.766
-110.882
-106.61
-102.018
-97.232
-92.6465
-87.7549
-83.6842
-0.20096
-0.0687017
-0.0411547
-0.0436153
-0.0323518
-0.0289514
-0.0238956
-0.0200022
-0.0164571
-0.0133724
-0.0107526
7.54974
7.54264
7.52923
7.50988
7.48671
7.4606
7.43143
7.39823
7.35984
7.31589
7.26639
7.21028
7.14542
7.07063
6.98533
6.88855
6.77938
6.65688
6.52
6.36762
6.19862
6.01186
5.80615
5.58022
5.33302
5.06265
4.76705
4.44532
4.09654
3.72006
3.31482
2.8789
2.40923
1.90425
1.36517
0.793307
0.188225
-0.450892
-1.12486
-1.83441
-2.58011
-3.36245
-4.18191
-5.03907
-5.93475
-6.87016
-7.84707
-8.86787
-9.93574
-11.0547
-12.2297
-13.467
-14.7749
-16.1648
-17.6524
-19.2602
-21.0178
-22.9639
-25.1473
-27.6318
-30.5016
-33.8662
-37.8583
-42.6304
-48.3506
-55.1804
-63.2341
-72.0787
-81.2399
-90.0849
-98.0828
-104.948
-110.643
-115.261
-118.967
-121.937
-124.32
-126.216
-127.689
-128.778
-129.506
-129.883
-129.915
-129.603
-128.943
-127.929
-126.558
-124.83
-122.737
-120.278
-117.456
-114.298
-110.826
-107.087
-103.14
-99.0647
-95.0629
-90.8935
-87.1395
-0.174963
-0.063254
-0.039761
-0.0400499
-0.0308998
-0.02668
-0.0221486
-0.0182972
-0.014862
-0.0118174
-0.00907798
9.23204
9.22346
9.20728
9.18399
9.15623
9.12508
9.09037
9.05093
9.00598
8.95538
8.89764
8.83023
8.75184
8.66173
8.55897
8.44246
8.31105
8.16351
7.99855
7.81481
7.61087
7.3853
7.13662
6.86334
6.56391
6.23657
5.8797
5.49125
5.06937
4.61293
4.1203
3.58901
3.01657
2.40167
1.74518
1.04758
0.308494
-0.472801
-1.29712
-2.16518
-3.07761
-4.0349
-5.0375
-6.08597
-7.18112
-8.32416
-9.51688
-10.7618
-12.0622
-13.4224
-14.8474
-16.3436
-17.9193
-19.5857
-21.359
-23.2613
-25.3219
-27.5771
-30.0709
-32.8579
-36.008
-39.6083
-43.755
-48.5425
-54.0543
-60.3424
-67.3847
-74.9891
-82.7402
-90.2787
-97.2531
-103.446
-108.787
-113.287
-117.006
-120.055
-122.542
-124.544
-126.116
-127.294
-128.103
-128.56
-128.673
-128.448
-127.887
-126.992
-125.764
-124.205
-122.318
-120.109
-117.586
-114.773
-111.709
-108.421
-104.98
-101.437
-97.9292
-94.3815
-90.9698
-0.148303
-0.0573359
-0.0373172
-0.0364241
-0.0291314
-0.0245693
-0.0203902
-0.0166741
-0.0133246
-0.0102971
-0.00749774
10.9186
10.9086
10.8898
10.8629
10.8309
10.7951
10.7554
10.7109
10.6612
10.6045
10.5379
10.4595
10.3688
10.2645
10.1455
10.0106
9.85831
9.68721
9.49574
9.28226
9.0451
8.78251
8.49276
8.17403
7.82449
7.44216
7.02499
6.57066
6.07701
5.54191
4.96295
4.3375
3.6634
2.93997
2.1672
1.34492
0.472678
-0.450253
-1.42464
-2.4512
-3.53051
-4.663
-5.84904
-7.08907
-8.38374
-9.73413
-11.1419
-12.6094
-14.1399
-15.7374
-17.4068
-19.1542
-20.9871
-22.916
-24.9558
-27.1273
-29.4578
-31.9797
-34.7302
-37.7524
-41.1001
-44.8379
-49.0332
-53.7424
-59.0005
-64.809
-71.1109
-77.7525
-84.4858
-91.0468
-97.2063
-102.803
-107.758
-112.047
-115.685
-118.731
-121.253
-123.309
-124.941
-126.184
-127.06
-127.587
-127.778
-127.641
-127.182
-126.406
-125.32
-123.928
-122.239
-120.261
-118.01
-115.503
-112.803
-109.913
-106.936
-103.87
-100.863
-97.8817
-94.932
-0.127162
-0.0506448
-0.0338467
-0.0325014
-0.0268583
-0.0224532
-0.0186297
-0.0151231
-0.0119067
-0.00893789
-0.00613257
12.6101
12.5988
12.5776
12.5473
12.5114
12.4714
12.4278
12.3802
12.3266
12.2632
12.188
12.1
11.9981
11.8809
11.7472
11.5954
11.4238
11.2309
11.0147
10.7734
10.5049
10.2073
9.87846
9.51627
9.11853
8.68293
8.20703
7.68821
7.12379
6.511
5.84705
5.12933
4.35587
3.5257
2.6381
1.69246
0.688106
-0.375711
-1.49975
-2.68466
-3.93095
-5.23893
-6.6088
-8.04077
-9.53523
-11.0929
-12.7152
-14.404
-16.1622
-17.9935
-19.9022
-21.8935
-23.9737
-26.1517
-28.4402
-30.858
-33.429
-36.1817
-39.1462
-42.355
-45.8456
-49.6624
-53.849
-58.4367
-63.4344
-68.8199
-74.5294
-80.4456
-86.4095
-92.2187
-97.7262
-102.809
-107.391
-111.436
-114.939
-117.924
-120.432
-122.5
-124.161
-125.445
-126.371
-126.958
-127.22
-127.166
-126.805
-126.146
-125.197
-123.966
-122.464
-120.704
-118.704
-116.476
-114.113
-111.555
-109.004
-106.345
-103.808
-101.343
-98.8742
-0.109121
-0.0441423
-0.0297445
-0.0286615
-0.0242592
-0.0202736
-0.0168907
-0.0136446
-0.0106045
-0.00773528
-0.00497617
14.307
14.2946
14.2712
14.2377
14.1982
14.1548
14.1094
14.0599
14.0018
13.932
13.8496
13.7532
13.6415
13.513
13.3661
13.1991
13.0102
12.7973
12.5584
12.2913
11.9938
11.6634
11.2977
10.8943
10.4505
9.96371
9.43104
8.84949
8.21598
7.52734
6.78052
5.97276
5.10188
4.16672
3.16572
2.09797
0.962576
-0.241343
-1.51456
-2.85768
-4.27111
-5.75498
-7.30926
-8.93384
-10.6287
-12.394
-14.2307
-16.14
-18.1242
-20.1863
-22.3298
-24.5587
-26.8777
-29.2933
-31.8154
-34.4591
-37.2449
-40.1966
-43.3386
-46.6944
-50.2886
-54.1478
-58.2971
-62.7507
-67.5034
-72.5257
-77.7586
-83.1117
-88.4684
-93.6969
-98.6803
-103.326
-107.567
-111.366
-114.706
-117.594
-120.05
-122.097
-123.762
-125.065
-126.026
-126.661
-126.985
-127.007
-126.739
-126.191
-125.371
-124.291
-122.963
-121.404
-119.633
-117.662
-115.596
-113.28
-111.15
-108.815
-106.709
-104.677
-102.721
-0.0912372
-0.037658
-0.0251617
-0.0249985
-0.0215023
-0.0181123
-0.0152209
-0.0122738
-0.00944048
-0.00670116
-0.00402372
16.01
15.9963
15.9709
15.9345
15.8916
15.847
15.8013
15.7497
15.687
15.6122
15.5239
15.4205
15.3006
15.1624
15.0042
14.824
14.6197
14.3891
14.1298
13.8394
13.5152
13.1545
12.7545
12.3124
11.8251
11.2897
10.7027
10.0608
9.36055
8.59845
7.77115
6.8756
5.90917
4.87106
3.75806
2.56952
1.30417
-0.0390703
-1.46103
-2.96229
-4.54314
-6.20351
-7.94308
-9.7613
-11.6576
-13.6316
-15.6832
-17.8131
-20.0225
-22.3134
-24.6884
-27.15
-29.7011
-32.3455
-35.0896
-37.9441
-40.9246
-44.0502
-47.3402
-50.8116
-54.4794
-58.3574
-62.4568
-66.7803
-71.3158
-76.0329
-80.8812
-85.7899
-90.673
-95.4372
-99.9925
-104.266
-108.201
-111.762
-114.928
-117.697
-120.075
-122.078
-123.724
-125.03
-126.011
-126.683
-127.059
-127.15
-126.966
-126.518
-125.818
-124.875
-123.706
-122.326
-120.758
-119.011
-117.187
-115.144
-113.31
-111.187
-109.525
-107.758
-106.354
-0.0719402
-0.0305157
-0.0206124
-0.0215812
-0.0187958
-0.0161267
-0.0137014
-0.0110582
-0.00843866
-0.0058406
-0.00325914
17.7191
17.7045
17.6773
17.6381
17.593
17.5489
17.5034
17.4492
17.3833
17.3049
17.2121
17.1033
16.9769
16.8309
16.6634
16.4722
16.2548
16.0089
15.7318
15.4206
15.0724
14.6843
14.2529
13.775
13.2473
12.666
12.0277
11.3284
10.5643
9.73154
8.82647
7.84569
6.78626
5.64639
4.42336
3.11553
1.72135
0.239549
-1.33079
-2.99025
-4.73901
-6.57679
-8.5029
-10.5163
-12.6158
-14.8002
-17.0683
-19.4198
-21.8548
-24.3739
-26.9785
-29.6697
-32.4484
-35.3157
-38.2744
-41.3302
-44.4933
-47.7773
-51.1964
-54.7626
-58.4847
-62.3683
-66.4153
-70.6212
-74.9705
-79.4348
-83.9716
-88.5252
-93.0303
-97.4164
-101.615
-105.568
-109.228
-112.564
-115.554
-118.19
-120.476
-122.417
-124.028
-125.322
-126.311
-127.009
-127.427
-127.577
-127.468
-127.111
-126.517
-125.698
-124.669
-123.447
-122.054
-120.496
-118.873
-117.053
-115.434
-113.511
-112.155
-110.572
-109.578
-0.0531063
-0.0222442
-0.0172227
-0.0185027
-0.0164301
-0.0144893
-0.0124275
-0.0100619
-0.00762804
-0.00515693
-0.00266469
19.4347
19.4192
19.3904
19.3487
19.3036
19.2608
19.2155
19.1595
19.0917
19.011
18.9152
18.8028
18.6718
18.52
18.3454
18.1455
17.9176
17.6591
17.3669
17.038
16.669
16.2565
15.7969
15.2866
14.7217
14.0981
13.4118
12.6585
11.8339
10.9338
9.95402
8.89085
7.74087
6.50154
5.17043
3.74487
2.22299
0.603347
-1.11512
-2.93302
-4.85044
-6.86689
-8.98129
-11.1921
-13.4972
-15.8946
-18.3821
-20.9576
-23.62
-26.3684
-29.2025
-32.1218
-35.1256
-38.2124
-41.3815
-44.634
-47.9744
-51.4102
-54.9505
-58.6027
-62.3713
-66.2569
-70.2561
-74.3602
-78.5524
-82.8068
-87.0879
-91.3513
-95.5463
-99.617
-103.512
-107.184
-110.597
-113.72
-116.537
-119.037
-121.22
-123.089
-124.653
-125.923
-126.909
-127.623
-128.074
-128.273
-128.228
-127.951
-127.451
-126.741
-125.834
-124.747
-123.501
-122.1
-120.639
-118.989
-117.526
-115.732
-114.589
-113.076
-112.306
-0.0315082
-0.0137864
-0.01629
-0.0158299
-0.0149147
-0.0133651
-0.0114959
-0.00934119
-0.00702956
-0.00464869
-0.00222077
21.1567
21.1404
21.1102
21.0666
21.0232
20.9827
20.9375
20.8809
20.8127
20.7311
20.6341
20.5199
20.3862
20.231
20.0517
19.8457
19.6101
19.3419
19.0378
18.6943
18.3079
17.8747
17.3906
16.8516
16.2533
15.5913
14.8609
14.0575
13.1762
12.2124
11.1615
10.0191
8.7814
7.44508
6.00846
4.46675
2.81835
1.06158
-0.804848
-2.78163
-4.86878
-7.06558
-9.37058
-11.7816
-14.2959
-16.9101
-19.6208
-22.4245
-25.3181
-28.2988
-31.3645
-34.513
-37.7414
-41.0463
-44.4238
-47.8712
-51.3874
-54.9744
-58.6355
-62.3738
-66.1899
-70.0815
-74.042
-78.0608
-82.1211
-86.1998
-90.2672
-94.2878
-98.2221
-102.023
-105.654
-109.079
-112.266
-115.192
-117.841
-120.205
-122.28
-124.069
-125.579
-126.816
-127.79
-128.51
-128.984
-129.222
-129.232
-129.023
-128.604
-127.988
-127.186
-126.213
-125.089
-123.814
-122.476
-120.95
-119.582
-117.85
-116.823
-115.268
-114.532
-0.0146569
-0.00887026
-0.0179927
-0.0136902
-0.014511
-0.0127922
-0.0109664
-0.00891836
-0.00664543
-0.00430745
-0.00190681
22.885
22.8681
22.8364
22.792
22.7514
22.7141
22.6694
22.6138
22.5466
22.4657
22.3693
22.2553
22.1213
21.965
21.7836
21.5744
21.3341
21.0594
20.7468
20.3924
19.9923
19.5423
19.0378
18.4743
17.8469
17.1508
16.3807
15.5316
14.598
13.5747
12.4566
11.2387
9.91651
8.48523
6.94769
5.29079
3.51712
1.62396
-0.390338
-2.52663
-4.7849
-7.16423
-9.66277
-12.2777
-15.0055
-17.8417
-20.7812
-23.8189
-26.9496
-30.1683
-33.4706
-36.8519
-40.3074
-43.8315
-47.4177
-51.0598
-54.7525
-58.4923
-62.2773
-66.106
-69.9758
-73.8814
-77.8148
-81.7645
-85.7147
-89.645
-93.5308
-97.344
-101.056
-104.621
-108.021
-111.224
-114.205
-116.947
-119.437
-121.666
-123.632
-125.338
-126.786
-127.983
-128.936
-129.653
-130.142
-130.41
-130.464
-130.313
-129.964
-129.428
-128.714
-127.836
-126.81
-125.634
-124.383
-122.949
-121.615
-119.893
-118.891
-117.186
-116.294
-0.00848831
-0.0092966
-0.0202389
-0.0131441
-0.0154407
-0.0125509
-0.0108282
-0.00878664
-0.00645675
-0.00411487
-0.0017008
24.6192
24.6019
24.5691
24.5252
24.4881
24.4541
24.4113
24.3581
24.2934
24.2151
24.1213
24.0096
23.8777
23.7228
23.5423
23.3328
23.0911
22.8135
22.4961
22.1348
21.7252
21.2626
20.7422
20.1588
19.5072
18.7818
17.9771
17.0871
16.1061
15.0281
13.8474
12.5584
11.156
9.63539
7.99401
6.22619
4.32934
2.30078
0.138675
-2.15795
-4.58907
-7.15361
-9.84933
-12.6728
-15.6196
-18.6841
-21.8597
-25.1393
-28.5154
-31.9805
-35.5275
-39.1491
-42.8378
-46.5857
-50.3838
-54.2229
-58.0942
-61.9897
-65.9028
-69.8279
-73.7587
-77.6879
-81.6063
-85.5022
-89.3612
-93.1659
-96.8957
-100.527
-104.029
-107.402
-110.599
-113.602
-116.395
-118.965
-121.302
-123.4
-125.257
-126.875
-128.256
-129.407
-130.332
-131.039
-131.534
-131.822
-131.912
-131.809
-131.52
-131.053
-130.415
-129.615
-128.666
-127.564
-126.367
-124.994
-123.658
-121.903
-120.838
-118.895
-117.655
-0.0098219
-0.0127723
-0.0233851
-0.0140253
-0.0171124
-0.0126088
-0.0111767
-0.00888534
-0.00642893
-0.00404279
-0.00157999
26.3589
26.3413
26.3079
26.2659
26.233
26.2028
26.163
26.1136
26.0531
25.9792
25.89
25.783
25.6557
25.5052
25.3285
25.1221
24.8826
24.6058
24.2877
23.9238
23.5092
23.0388
22.5074
21.9093
21.2387
20.4896
19.6556
18.7304
17.7074
16.5801
15.342
13.9867
12.5084
10.9015
9.16147
7.28445
5.26612
3.10312
0.793225
-1.66472
-4.27078
-7.02376
-9.92107
-12.9587
-16.1313
-19.4319
-22.8526
-26.3841
-30.0165
-33.7395
-37.5427
-41.4157
-45.3481
-49.3288
-53.3463
-57.3885
-61.4433
-65.4992
-69.5458
-73.5735
-77.5731
-81.5354
-85.4502
-89.3062
-93.0905
-96.7885
-100.384
-103.86
-107.195
-110.377
-113.386
-116.205
-118.823
-121.23
-123.42
-125.389
-127.136
-128.663
-129.974
-131.072
-131.962
-132.651
-133.144
-133.446
-133.563
-133.501
-133.264
-132.857
-132.285
-131.554
-130.671
-129.626
-128.469
-127.117
-125.787
-123.929
-122.692
-120.5
-118.73
-0.0164674
-0.0170715
-0.027664
-0.0156081
-0.0195208
-0.0127574
-0.0119609
-0.00909828
-0.00650174
-0.00405127
-0.00151962
28.1031
28.0854
28.0517
28.0128
27.9853
27.9594
27.9239
27.8798
27.8252
27.7577
27.6754
27.5756
27.4556
27.3124
27.1428
26.9431
26.7095
26.4377
26.1233
25.7613
25.3466
24.8737
24.3368
23.7297
23.046
22.2791
21.4221
20.4678
19.409
18.2384
16.9486
15.5326
13.9834
12.2946
10.4603
8.47697
6.33909
4.04283
1.58523
-1.03518
-3.81862
-6.76385
-9.86797
-13.1264
-16.5328
-20.0793
-23.7561
-27.5518
-31.4539
-35.4492
-39.5237
-43.6636
-47.8546
-52.0822
-56.3316
-60.5876
-64.8352
-69.0595
-73.247
-77.3849
-81.4616
-85.4661
-89.3876
-93.2153
-96.938
-100.544
-104.022
-107.358
-110.537
-113.549
-116.384
-119.03
-121.482
-123.732
-125.778
-127.619
-129.255
-130.688
-131.922
-132.961
-133.811
-134.475
-134.959
-135.268
-135.407
-135.378
-135.187
-134.835
-134.325
-133.658
-132.838
-131.847
-130.736
-129.379
-128.037
-126.053
-124.585
-122.173
-119.725
-0.0261437
-0.0208063
-0.0333346
-0.0170427
-0.0224981
-0.0130463
-0.0130957
-0.00915387
-0.00659174
-0.00407443
-0.00149818
29.8508
29.8328
29.7996
29.7649
29.7436
29.7226
29.693
29.6559
29.609
29.5501
29.477
29.387
29.2772
29.1446
28.9855
28.7962
28.5726
28.3102
28.0042
27.6492
27.2398
26.77
26.2334
25.6235
24.9332
24.1552
23.2819
22.3054
21.2177
20.0106
18.6759
17.2053
15.5911
13.8257
11.9022
9.81512
7.56073
5.13273
2.52763
-0.256461
-3.22005
-6.3619
-9.67891
-13.166
-16.816
-20.6196
-24.5655
-28.6402
-32.8284
-37.1137
-41.4784
-45.9045
-50.3737
-54.8672
-59.3664
-63.8524
-68.307
-72.7121
-77.0512
-81.309
-85.4718
-89.5272
-93.4643
-97.273
-100.944
-104.468
-107.837
-111.045
-114.076
-116.929
-119.598
-122.079
-124.368
-126.464
-128.367
-130.077
-131.598
-132.933
-134.085
-135.06
-135.861
-136.495
-136.965
-137.275
-137.43
-137.432
-137.283
-136.983
-136.533
-135.93
-135.175
-134.239
-133.178
-131.812
-130.456
-128.402
-126.712
-124.194
-120.878
-0.0374035
-0.0237449
-0.0402883
-0.0176538
-0.0259315
-0.0130316
-0.0143204
-0.0089493
-0.00670653
-0.00406037
-0.00148634
31.6007
31.5826
31.5507
31.521
31.5062
31.4914
31.4694
31.4409
31.4037
31.3556
31.2941
31.2167
31.1202
31.0013
30.8565
30.6816
30.4724
30.2241
29.9314
29.5889
29.1905
28.7298
28.2001
27.5941
26.9042
26.1225
25.2404
24.2494
23.1405
21.9046
20.5323
19.0144
17.3419
15.5061
13.4986
11.3119
8.94517
6.38674
3.63454
0.685557
-2.46117
-5.80458
-9.34152
-13.0664
-16.9712
-21.0455
-25.2761
-29.6472
-34.141
-38.7373
-43.4147
-48.1506
-52.9219
-57.7052
-62.4771
-67.2146
-71.8954
-76.4981
-81.0033
-85.3931
-89.6523
-93.7675
-97.7278
-101.524
-105.149
-108.597
-111.863
-114.937
-117.831
-120.53
-123.037
-125.353
-127.48
-129.42
-131.177
-132.753
-134.153
-135.383
-136.447
-137.351
-138.099
-138.696
-139.146
-139.454
-139.621
-139.65
-139.542
-139.295
-138.905
-138.37
-137.685
-136.809
-135.809
-134.457
-133.113
-131.058
-129.179
-126.694
-122.575
-0.0516181
-0.0258647
-0.0482908
-0.017303
-0.0290505
-0.0125568
-0.0153202
-0.00843155
-0.00676069
-0.00393724
-0.00144513
33.3516
33.3335
33.3034
33.2797
33.2721
33.2645
33.2516
33.2335
33.208
33.1729
33.1257
33.0636
32.9836
32.8821
32.7553
32.5991
32.4088
32.1795
31.9056
31.5812
31.2
30.7552
30.2393
29.6446
28.9629
28.1854
27.3029
26.3058
25.1843
23.9281
22.5268
20.9698
19.2468
17.3477
15.263
12.9838
10.5043
7.81957
4.92137
1.80647
-1.52654
-5.077
-8.84179
-12.815
-16.9878
-21.3484
-25.882
-30.5703
-35.3925
-40.3248
-45.3414
-50.4149
-55.5168
-60.6184
-65.6907
-70.7058
-75.6367
-80.4581
-85.1471
-89.6837
-94.0509
-98.2347
-102.225
-106.013
-109.595
-112.969
-116.133
-119.084
-121.828
-124.369
-126.71
-128.857
-130.816
-132.595
-134.198
-135.633
-136.906
-138.024
-138.993
-139.819
-140.507
-141.062
-141.489
-141.79
-141.967
-142.023
-141.955
-141.762
-141.438
-140.976
-140.371
-139.571
-138.652
-137.356
-136.053
-134.065
-132.015
-129.792
-125.053
-0.071336
-0.0271261
-0.0568327
-0.0158645
-0.0305723
-0.0121194
-0.0158003
-0.00755383
-0.00660685
-0.00361448
-0.0013562
35.1015
35.0836
35.0561
35.0394
35.0395
35.0404
35.038
35.0321
35.0203
35.0006
34.9703
34.9266
34.8663
34.7858
34.6811
34.5479
34.3814
34.1763
33.9269
33.6268
33.2695
32.8474
32.3529
31.7776
31.1124
30.3479
29.474
28.4803
27.3558
26.0889
24.6681
23.0813
21.3168
19.3629
17.2084
14.8426
12.2557
9.44952
6.40533
3.12359
-0.398901
-4.1623
-8.16377
-12.3972
-16.8531
-21.5185
-26.3764
-31.4063
-36.5839
-41.8815
-47.2686
-52.7123
-58.1782
-63.6314
-69.0368
-74.3603
-79.5694
-84.6343
-89.5283
-94.2285
-98.7162
-102.977
-107.002
-110.785
-114.323
-117.619
-120.675
-123.494
-126.085
-128.458
-130.624
-132.593
-134.375
-135.982
-137.423
-138.707
-139.844
-140.842
-141.708
-142.449
-143.071
-143.579
-143.977
-144.269
-144.455
-144.536
-144.511
-144.376
-144.125
-143.746
-143.237
-142.534
-141.725
-140.535
-139.317
-137.485
-135.34
-133.587
-128.541
-0.100776
-0.02717
-0.0646583
-0.0146279
-0.0307059
-0.0101752
-0.014905
-0.0061647
-0.00606825
-0.00299115
-0.00123852
36.8486
36.8311
36.8067
36.7976
36.8065
36.8171
36.8267
36.8347
36.8388
36.8368
36.8261
36.8038
36.7667
36.711
36.6326
36.527
36.3893
36.214
35.995
35.7257
35.3992
35.0076
34.5425
33.995
33.3555
32.6136
31.7584
30.7784
29.6614
28.3947
26.9651
25.3593
23.5636
21.5647
19.3494
16.9054
14.2213
11.29
8.10416
4.65599
0.941101
-3.04141
-7.28922
-11.7963
-16.5526
-21.5438
-26.7511
-32.1511
-37.7159
-43.4134
-49.2077
-55.0601
-60.9293
-66.7733
-72.5497
-78.2175
-83.7376
-89.0745
-94.1971
-99.0795
-103.701
-108.048
-112.11
-115.886
-119.376
-122.586
-125.52
-128.196
-130.62
-132.812
-134.788
-136.564
-138.155
-139.576
-140.842
-141.964
-142.954
-143.821
-144.576
-145.224
-145.774
-146.23
-146.596
-146.876
-147.069
-147.177
-147.198
-147.126
-146.955
-146.674
-146.278
-145.702
-145.034
-144.008
-142.934
-141.376
-139.26
-137.587
-133.074
-0.155947
-0.0336824
-0.063745
-0.0138191
-0.0280537
-0.00721885
-0.012695
-0.00408396
-0.00497027
-0.00207874
-0.00106935
38.5905
38.5735
38.5527
38.5521
38.5707
38.5923
38.6154
38.6391
38.6612
38.6794
38.6911
38.6934
38.6829
38.6558
38.608
38.5348
38.4311
38.2912
38.1089
37.8774
37.589
37.2358
36.8088
36.2985
35.6944
34.9855
34.1599
33.205
32.1073
30.8528
29.4267
27.8139
25.999
23.9665
21.7011
19.1881
16.4139
13.3657
10.0409
6.42543
2.51533
-1.69261
-6.19718
-10.9928
-16.0689
-21.4101
-26.9956
-32.7989
-38.7882
-44.9264
-51.1716
-57.4781
-63.7969
-70.0778
-76.2699
-82.3238
-88.1927
-93.8344
-99.2124
-104.297
-109.066
-113.505
-117.606
-121.37
-124.802
-127.913
-130.71
-133.219
-135.456
-137.446
-139.211
-140.773
-142.154
-143.373
-144.447
-145.392
-146.222
-146.948
-147.581
-148.129
-148.6
-148.998
-149.328
-149.593
-149.794
-149.93
-149.999
-149.997
-149.917
-149.748
-149.485
-149.066
-148.573
-147.762
-146.887
-145.607
-143.81
-142.448
-138.621
-0.197513
-0.00785363
-0.0542487
-0.00611656
-0.0219827
-0.00289204
-0.00897575
-0.00136531
-0.00326903
-0.000935541
-0.000813614
40.3245
40.3083
40.2919
40.3003
40.3296
40.3634
40.4015
40.4428
40.485
40.5258
40.5627
40.5926
40.6123
40.6178
40.605
40.5691
40.5048
40.4064
40.2673
40.0805
39.8382
39.5319
39.1521
38.6887
38.1306
37.466
36.6819
35.7645
34.6992
33.4703
32.0614
30.4555
28.635
26.5822
24.2792
21.7087
18.8543
15.7006
12.2366
8.45532
4.34833
-0.0912039
-4.8635
-9.9637
-15.3813
-21.1
-27.0967
-33.342
-39.7995
-46.4264
-53.174
-59.9885
-66.8121
-73.5847
-80.2453
-86.7347
-92.9966
-98.9806
-104.644
-109.953
-114.882
-119.417
-123.554
-127.295
-130.653
-133.644
-136.283
-138.596
-140.617
-142.376
-143.902
-145.226
-146.372
-147.366
-148.229
-148.98
-149.635
-150.207
-150.708
-151.146
-151.531
-151.866
-152.156
-152.404
-152.611
-152.775
-152.897
-152.971
-152.992
-152.949
-152.84
-152.607
-152.325
-151.78
-151.176
-150.247
-148.821
-147.846
-144.146
-0.425453
-0.0236951
-0.0645271
-0.00716965
-0.0135899
0.00229111
-0.00358133
0.00192767
-0.0010039
0.000365982
-0.000463936
42.0478
42.0325
42.0213
42.0393
42.0802
42.1274
42.182
42.2427
42.3071
42.373
42.4378
42.4987
42.5521
42.5943
42.6209
42.6272
42.6079
42.557
42.4679
42.3333
42.1452
41.8946
41.5716
41.1657
40.6649
40.0566
39.3269
38.4607
37.442
36.2537
34.8774
33.294
31.4837
29.426
27.1003
24.4861
21.5635
18.3139
14.7199
10.7748
6.46806
1.79105
-3.26035
-8.68262
-14.4657
-20.5925
-27.0383
-33.77
-40.7465
-47.9186
-55.2296
-62.6163
-70.0104
-77.3402
-84.5326
-91.5161
-98.2235
-104.594
-110.577
-116.132
-121.234
-125.867
-130.031
-133.734
-136.994
-139.833
-142.276
-144.36
-146.129
-147.62
-148.874
-149.925
-150.807
-151.55
-152.179
-152.715
-153.178
-153.581
-153.938
-154.258
-154.548
-154.814
-155.06
-155.288
-155.5
-155.695
-155.871
-156.027
-156.157
-156.254
-156.316
-156.298
-156.26
-156.033
-155.768
-155.267
-154.314
-153.835
-143.199
0.310191
0.0437271
0.0659231
0.0304303
0.0155702
0.0122591
0.00386073
0.00564327
0.0016303
0.00168432
-4.68492e-05
43.7569
43.743
43.7376
43.766
43.8191
43.881
43.9537
44.0355
44.1242
44.2177
44.3133
44.4081
44.4989
44.5817
44.6523
44.7059
44.7371
44.74
44.7078
44.6331
44.5075
44.3219
44.0659
43.7285
43.297
42.758
42.0965
41.2964
40.3401
39.2088
37.8823
36.3392
34.557
32.5124
30.1814
27.5399
24.5643
21.2315
17.5202
13.4137
8.9056
3.98629
-1.35559
-7.11844
-13.2933
-19.8627
-26.8003
-34.0697
-41.6243
-49.4077
-57.3542
-65.3896
-73.4329
-81.3987
-89.1992
-96.7479
-103.963
-110.772
-117.112
-122.939
-128.224
-132.953
-137.129
-140.768
-143.897
-146.536
-148.742
-150.552
-152.02
-153.199
-154.135
-154.875
-155.458
-155.918
-156.285
-156.584
-156.834
-157.053
-157.252
-157.442
-157.63
-157.821
-158.018
-158.224
-158.439
-158.664
-158.898
-159.139
-159.386
-159.633
-159.88
-160.098
-160.332
-160.462
-160.623
-160.645
-160.368
-160.547
-135.101
0.272625
0.00336374
0.0925058
0.0103285
0.0291332
0.0153477
0.00984178
0.00849777
0.00407082
0.00284412
0.000372612
45.4483
45.4362
45.4373
45.4766
45.5427
45.6207
45.713
45.8177
45.9328
46.0561
46.1852
46.3172
46.4487
46.5761
46.6952
46.8011
46.8885
46.9515
46.9833
46.9762
46.9219
46.8108
46.6324
46.3749
46.0254
45.5695
44.9912
44.2732
43.3965
42.3405
41.0829
39.6
37.8665
35.8557
33.5399
30.891
27.8805
24.4806
20.6647
16.4084
11.699
6.53163
0.88805
-5.23488
-11.83
-18.8805
-26.3584
-34.2242
-42.4256
-50.8981
-59.5654
-68.3407
-77.1278
-85.825
-94.3264
-102.526
-110.325
-117.633
-124.376
-130.502
-135.978
-140.794
-144.959
-148.498
-151.448
-153.846
-155.746
-157.217
-158.324
-159.131
-159.698
-160.078
-160.319
-160.459
-160.534
-160.568
-160.586
-160.602
-160.63
-160.679
-160.755
-160.864
-161.007
-161.187
-161.405
-161.659
-161.951
-162.28
-162.646
-163.049
-163.491
-163.959
-164.485
-165.008
-165.637
-166.272
-166.799
-167.856
-125.867
0.172882
0.0329545
0.0799543
0.0204087
0.0349688
0.0166034
0.0135969
0.010291
0.00586226
0.00367817
0.000709825
47.1186
47.1087
47.1169
47.1675
47.2474
47.3427
47.4559
47.5852
47.7286
47.8841
48.0493
48.2214
48.3972
48.5731
48.745
48.9083
49.0575
49.1869
49.2897
49.3582
49.3839
49.3572
49.2672
49.1018
48.8475
48.4892
48.01
47.3914
46.6129
45.6522
44.4849
43.0847
41.423
39.4698
37.1933
34.5604
31.5374
28.0905
24.187
19.7958
14.8885
9.47172
3.51364
-2.98953
-10.0357
-17.6096
-25.6827
-34.2124
-43.1405
-52.3933
-61.8829
-71.5072
-81.153
-90.6977
-100.013
-108.97
-117.444
-125.325
-132.523
-138.975
-144.647
-149.534
-153.654
-157.044
-159.749
-161.829
-163.35
-164.404
-165.074
-165.438
-165.57
-165.533
-165.382
-165.161
-164.906
-164.648
-164.409
-164.204
-164.045
-163.942
-163.898
-163.918
-164.003
-164.154
-164.37
-164.653
-165.001
-165.417
-165.903
-166.463
-167.101
-167.821
-168.649
-169.573
-170.683
-171.972
-173.344
-175.403
-116.404
0.0947239
0.033439
0.0642103
0.0235243
0.0348417
0.0176197
0.0160022
0.0115656
0.00714341
0.00425718
0.000950151
48.7641
48.7567
48.7726
48.8348
48.9291
49.0428
49.1783
49.3338
49.5074
49.6972
49.901
50.1161
50.3394
50.5676
50.7967
51.0221
51.2387
51.4407
51.6215
51.7735
51.8882
51.9558
51.9654
51.9045
51.7592
51.5137
51.1504
50.6496
49.9895
49.146
48.0924
46.7998
45.2364
43.3681
41.1586
38.5695
35.5608
32.0921
28.123
23.6146
18.5312
12.8517
6.56859
-0.333232
-7.86251
-16.0064
-24.7368
-34.008
-43.7557
-53.8967
-64.3291
-74.9341
-85.577
-96.1106
-106.379
-116.223
-125.487
-134.033
-141.747
-148.554
-154.42
-159.349
-163.372
-166.546
-168.917
-170.58
-171.626
-172.165
-172.303
-172.138
-171.758
-171.236
-170.635
-170.003
-169.382
-168.799
-168.277
-167.831
-167.472
-167.204
-167.033
-166.958
-166.979
-167.097
-167.309
-167.616
-168.019
-168.519
-169.12
-169.831
-170.661
-171.622
-172.744
-174.05
-175.619
-177.521
-179.685
-182.539
-107.408
0.0372341
0.0323929
0.0472945
0.0236024
0.031858
0.017942
0.0167279
0.0121977
0.00789832
0.00459277
0.00108866
50.3807
50.376
50.4002
50.4742
50.5838
50.7168
50.8758
51.0588
51.2643
51.4904
51.7351
51.9959
52.2699
52.5539
52.8442
53.1365
53.4258
53.7065
53.9723
54.2156
54.4281
54.6
54.7204
54.7766
54.7545
54.6377
54.4079
54.0446
53.5244
52.8217
51.9075
50.7501
49.3145
47.5622
45.4519
42.9392
39.9773
36.5176
32.5109
27.9086
22.6648
16.738
10.1175
2.79275
-5.25382
-14.0188
-23.4761
-33.578
-44.2541
-55.4107
-66.9306
-78.6744
-90.4828
-102.179
-113.574
-124.468
-134.666
-143.988
-152.29
-159.482
-165.531
-170.456
-174.309
-177.168
-179.106
-180.222
-180.66
-180.555
-180.044
-179.245
-178.26
-177.174
-176.057
-174.963
-173.931
-172.99
-172.16
-171.454
-170.879
-170.437
-170.129
-169.953
-169.907
-169.988
-170.194
-170.522
-170.974
-171.552
-172.262
-173.113
-174.118
-175.299
-176.69
-178.338
-180.305
-182.73
-185.62
-189.114
-99.2163
0.0135006
0.0329216
0.0368439
0.0248961
0.029082
0.0184442
0.0168225
0.0124293
0.00827253
0.00474452
0.00113794
51.964
51.9622
51.995
52.0813
52.2067
52.36
52.5435
52.7554
52.9943
53.2585
53.5462
53.8551
54.1827
54.5259
54.8813
55.2448
55.6119
55.9772