/*--------------------------------*- C++ -*----------------------------------*\
| =========                 |                                                 |
| \\      /  F ield         | OpenFOAM: The Open Source CFD Toolbox           |
|  \\    /   O peration     | Version:  v2106                                 |
|   \\  /    A nd           | Website:  www.openfoam.com                      |
|    \\/     M anipulation  |                                                 |
\*---------------------------------------------------------------------------*/
FoamFile
{
    version     2.0;
    format      ascii;
    arch        "LSB;label=32;scalar=64";
    class       surfaceScalarField;
    location    "1.3";
    object      phi;
}
// * * * * * * * * * * * * * * * * * * * * * * * * * * * * * * * * * * * * * //

dimensions      [0 3 -1 0 0 0 0];

oriented        oriented;

internalField   nonuniform List<scalar> 
59425
(
-1.39391e-08
-8.1321e-06
-2.74195e-08
-8.20717e-06
-4.00055e-08
-8.21757e-06
-5.17451e-08
-8.22545e-06
-6.29556e-08
-8.2352e-06
-7.38514e-08
-8.24825e-06
-8.4508e-08
-8.26539e-06
-9.4893e-08
-8.28702e-06
-1.049e-07
-8.31315e-06
-1.14378e-07
-8.34355e-06
-1.23165e-07
-8.37787e-06
-1.31144e-07
-8.4157e-06
-1.38275e-07
-8.45653e-06
-1.44584e-07
-8.49981e-06
-1.50152e-07
-8.54509e-06
-1.55073e-07
-8.59192e-06
-1.59418e-07
-8.63978e-06
-1.63225e-07
-8.6881e-06
-1.66506e-07
-8.73635e-06
-1.6925e-07
-8.78409e-06
-1.71422e-07
-8.8309e-06
-1.72963e-07
-8.87625e-06
-1.73797e-07
-8.91949e-06
-1.73831e-07
-8.95998e-06
-1.72966e-07
-8.99705e-06
-1.711e-07
-9.03004e-06
-1.68135e-07
-9.05823e-06
-1.63978e-07
-9.08091e-06
-1.58544e-07
-9.09735e-06
-1.51761e-07
-9.10679e-06
-1.43576e-07
-9.10847e-06
-1.33973e-07
-9.10161e-06
-1.23006e-07
-9.08545e-06
-1.10776e-07
-9.05929e-06
-9.74292e-08
-9.02217e-06
-8.32281e-08
-8.97321e-06
-6.82455e-08
-8.91178e-06
-5.23653e-08
-8.83704e-06
-3.55351e-08
-8.7483e-06
-1.77633e-08
-8.64493e-06
9.08973e-10
-8.52632e-06
2.04221e-08
-8.3919e-06
4.06967e-08
-8.24118e-06
6.16342e-08
-8.07372e-06
8.31212e-08
-7.88914e-06
1.0503e-07
-7.68713e-06
1.27223e-07
-7.46743e-06
1.49554e-07
-7.22989e-06
1.71873e-07
-6.97438e-06
1.94032e-07
-6.70084e-06
2.15886e-07
-6.40924e-06
2.37304e-07
-6.0996e-06
2.5818e-07
-5.77193e-06
2.78439e-07
-5.42619e-06
2.98058e-07
-5.06228e-06
3.17091e-07
-4.67992e-06
3.3571e-07
-4.2786e-06
3.54286e-07
-3.85741e-06
3.73563e-07
-3.41486e-06
3.95045e-07
-2.94858e-06
4.21976e-07
-2.45507e-06
4.6198e-07
-1.92957e-06
5.34172e-07
-1.36719e-06
6.8158e-07
-7.61239e-07
9.40101e-07
-4.54354e-08
1.4598e-06
7.11719e-07
2.28485e-06
1.45109e-06
3.23177e-06
1.93701e-06
4.01049e-06
2.0063e-06
4.47388e-06
1.7592e-06
4.64389e-06
1.41438e-06
4.64074e-06
1.08192e-06
4.5531e-06
8.34463e-07
4.42879e-06
6.7935e-07
4.29212e-06
5.91736e-07
4.15289e-06
5.44421e-07
4.01145e-06
5.15538e-07
3.86242e-06
4.89628e-07
3.69824e-06
4.57679e-07
3.51211e-06
4.16337e-07
3.29929e-06
3.66387e-07
3.0566e-06
3.10108e-07
2.78184e-06
2.49552e-07
2.4734e-06
1.87002e-07
2.12901e-06
1.23589e-07
1.74765e-06
5.77285e-08
1.33226e-06
-1.2842e-08
8.56834e-07
-6.0094e-08
3.16236e-07
-1.03597e-07
-3.0002e-07
-1.34821e-07
-1.00792e-06
-1.44177e-07
-1.81732e-06
-1.1931e-07
-2.72855e-06
-2.90534e-08
-3.79432e-06
1.47617e-07
-4.95347e-06
5.77098e-07
-6.0918e-06
1.21878e-06
-7.31745e-06
1.8474e-06
-8.81098e-06
2.27234e-06
-9.56727e-06
1.12167e-06
-1.09817e-05
-3.83461e-06
-1.09477e-05
-4.62832e-06
-1.2731e-05
-1.94162e-05
-1.79105e-05
-2.24559e-05
-1.93966e-05
-1.56024e-05
-2.1361e-05
-1.44259e-05
-2.18063e-05
-1.01246e-05
-2.21376e-05
-7.56552e-06
-2.12647e-05
-4.13163e-06
-2.03012e-05
-2.05949e-06
-7.44104e-07
-1.49006e-08
-8.1172e-06
-2.96062e-08
-8.19246e-06
-4.3693e-08
-8.20349e-06
-5.71805e-08
-8.21196e-06
-7.01872e-08
-8.22219e-06
-8.28035e-08
-8.23563e-06
-9.50277e-08
-8.25317e-06
-1.06778e-07
-8.27527e-06
-1.17915e-07
-8.30201e-06
-1.28272e-07
-8.33319e-06
-1.37707e-07
-8.36844e-06
-1.46127e-07
-8.40729e-06
-1.53539e-07
-8.44912e-06
-1.60027e-07
-8.49332e-06
-1.65702e-07
-8.53942e-06
-1.70659e-07
-8.58697e-06
-1.74934e-07
-8.63551e-06
-1.78499e-07
-8.68453e-06
-1.81297e-07
-8.73355e-06
-1.83261e-07
-8.78213e-06
-1.84316e-07
-8.82985e-06
-1.84364e-07
-8.8762e-06
-1.83286e-07
-8.92057e-06
-1.80946e-07
-8.96232e-06
-1.77215e-07
-9.00079e-06
-1.71978e-07
-9.03527e-06
-1.65129e-07
-9.06508e-06
-1.56565e-07
-9.08948e-06
-1.46198e-07
-9.10772e-06
-1.33955e-07
-9.11904e-06
-1.19781e-07
-9.12264e-06
-1.03664e-07
-9.11773e-06
-8.56736e-08
-9.10344e-06
-6.59687e-08
-9.079e-06
-4.45705e-08
-9.04357e-06
-2.14004e-08
-8.99638e-06
3.58057e-09
-8.93676e-06
3.04237e-08
-8.86388e-06
5.909e-08
-8.77697e-06
8.94973e-08
-8.67534e-06
1.21531e-07
-8.55835e-06
1.55058e-07
-8.42543e-06
1.89918e-07
-8.27605e-06
2.25929e-07
-8.10974e-06
2.62894e-07
-7.92611e-06
3.00601e-07
-7.72483e-06
3.38831e-07
-7.50566e-06
3.77362e-07
-7.26842e-06
4.15977e-07
-7.01299e-06
4.54475e-07
-6.73933e-06
4.92678e-07
-6.44744e-06
5.3045e-07
-6.13737e-06
5.67709e-07
-5.80919e-06
6.04462e-07
-5.46294e-06
6.40833e-07
-5.09865e-06
6.77122e-07
-4.71621e-06
7.13887e-07
-4.31537e-06
7.52085e-07
-3.89561e-06
7.9332e-07
-3.45609e-06
8.40255e-07
-2.99552e-06
8.97255e-07
-2.51207e-06
9.71106e-07
-2.00342e-06
1.07062e-06
-1.46671e-06
1.20667e-06
-8.97317e-07
1.45656e-06
-2.95366e-07
1.8776e-06
2.90613e-07
2.48815e-06
8.40522e-07
3.20679e-06
1.21842e-06
3.84745e-06
1.3657e-06
4.28762e-06
1.31907e-06
4.52834e-06
1.17367e-06
4.60302e-06
1.00725e-06
4.56986e-06
8.67624e-07
4.4795e-06
7.6972e-07
4.36192e-06
7.09315e-07
4.23085e-06
6.75493e-07
4.09033e-06
6.56057e-07
3.93875e-06
6.41203e-07
3.77181e-06
6.24619e-07
3.58483e-06
6.03325e-07
3.37427e-06
5.76941e-07
3.13772e-06
5.46664e-07
2.87328e-06
5.13985e-07
2.5797e-06
4.80583e-07
2.25448e-06
4.48816e-07
1.89121e-06
4.20998e-07
1.47711e-06
4.01257e-07
1.0219e-06
3.95111e-07
5.14044e-07
4.04262e-07
-5.75108e-08
4.36734e-07
-7.07543e-07
5.05855e-07
-1.44996e-06
6.23105e-07
-2.30659e-06
8.27578e-07
-3.27216e-06
1.11319e-06
-4.28755e-06
1.59248e-06
-5.26889e-06
2.20011e-06
-6.33613e-06
2.91464e-06
-7.59025e-06
3.52646e-06
-8.69492e-06
2.22635e-06
-1.03755e-05
-2.15404e-06
-1.12481e-05
-3.75572e-06
-1.25064e-05
-1.81578e-05
-1.62946e-05
-1.86677e-05
-1.75803e-05
-1.43167e-05
-1.91159e-05
-1.28903e-05
-1.95318e-05
-9.70864e-06
-1.97465e-05
-7.35089e-06
-1.91192e-05
-4.75885e-06
-1.83804e-05
-2.7983e-06
-1.26375e-06
-1.73839e-08
-8.09982e-06
-3.46488e-08
-8.1752e-06
-5.13852e-08
-8.18675e-06
-6.76057e-08
-8.19574e-06
-8.3348e-08
-8.20645e-06
-9.85965e-08
-8.22038e-06
-1.13259e-07
-8.23851e-06
-1.2719e-07
-8.26134e-06
-1.40218e-07
-8.28899e-06
-1.52199e-07
-8.32121e-06
-1.6306e-07
-8.35757e-06
-1.72841e-07
-8.3975e-06
-1.81654e-07
-8.4403e-06
-1.89619e-07
-8.48536e-06
-1.96765e-07
-8.53227e-06
-2.03033e-07
-8.5807e-06
-2.08312e-07
-8.63023e-06
-2.12453e-07
-8.68039e-06
-2.15297e-07
-8.7307e-06
-2.16705e-07
-8.78072e-06
-2.16557e-07
-8.83e-06
-2.14749e-07
-8.87801e-06
-2.1117e-07
-8.92415e-06
-2.05683e-07
-8.96781e-06
-1.98145e-07
-9.00832e-06
-1.88416e-07
-9.045e-06
-1.76365e-07
-9.07713e-06
-1.61889e-07
-9.10395e-06
-1.44896e-07
-9.12471e-06
-1.25309e-07
-9.13862e-06
-1.03062e-07
-9.14489e-06
-7.813e-08
-9.14266e-06
-5.06112e-08
-9.13096e-06
-2.06066e-08
-9.109e-06
1.20566e-08
-9.07623e-06
4.75011e-08
-9.03183e-06
8.56714e-08
-8.97493e-06
1.26475e-07
-8.90469e-06
1.69826e-07
-8.82032e-06
2.15594e-07
-8.72111e-06
2.63614e-07
-8.60637e-06
3.13687e-07
-8.4755e-06
3.65586e-07
-8.32795e-06
4.19056e-07
-8.16321e-06
4.73825e-07
-7.98088e-06
5.29604e-07
-7.78061e-06
5.86098e-07
-7.56216e-06
6.43013e-07
-7.32534e-06
7.00066e-07
-7.07005e-06
7.57e-07
-6.79627e-06
8.136e-07
-6.50404e-06
8.69711e-07
-6.19348e-06
9.25265e-07
-5.86474e-06
9.80315e-07
-5.51799e-06
1.03509e-06
-5.15342e-06
1.09004e-06
-4.77117e-06
1.14598e-06
-4.37131e-06
1.20423e-06
-3.95386e-06
1.26684e-06
-3.5187e-06
1.33698e-06
-3.06566e-06
1.41952e-06
-2.59461e-06
1.52189e-06
-2.10578e-06
1.65575e-06
-1.60055e-06
1.84175e-06
-1.08327e-06
2.11192e-06
-5.6542e-07
2.45451e-06
-5.18166e-08
2.90047e-06
3.9468e-07
3.39056e-06
7.28374e-07
3.83383e-06
9.22432e-07
4.16465e-06
9.88242e-07
4.36712e-06
9.71192e-07
4.45639e-06
9.17995e-07
4.46169e-06
8.62325e-07
4.40995e-06
8.21464e-07
4.32075e-06
7.9852e-07
4.2065e-06
7.89739e-07
4.0728e-06
7.89759e-07
3.92077e-06
7.93232e-07
3.74913e-06
7.96263e-07
3.55544e-06
7.9702e-07
3.33717e-06
7.95215e-07
3.09226e-06
7.91567e-07
2.81889e-06
7.87353e-07
2.51506e-06
7.84413e-07
2.17868e-06
7.85203e-07
1.80715e-06
7.92526e-07
1.39832e-06
8.10085e-07
9.50219e-07
8.43213e-07
4.56772e-07
8.97709e-07
-8.79241e-08
9.81429e-07
-6.89031e-07
1.10696e-06
-1.34954e-06
1.28361e-06
-2.0708e-06
1.54884e-06
-2.84779e-06
1.89017e-06
-3.6696e-06
2.41431e-06
-4.48464e-06
3.01516e-06
-5.34221e-06
3.7722e-06
-6.18564e-06
4.36989e-06
-7.26091e-06
3.30161e-06
-8.95124e-06
-4.63712e-07
-1.01674e-05
-2.5396e-06
-1.11627e-05
-1.71625e-05
-1.34167e-05
-1.64137e-05
-1.46951e-05
-1.30383e-05
-1.60318e-05
-1.15535e-05
-1.66802e-05
-9.06032e-06
-1.70792e-05
-6.95182e-06
-1.70227e-05
-4.81539e-06
-1.68353e-05
-2.98568e-06
-1.43538e-06
-2.0717e-08
-8.0791e-06
-4.1383e-08
-8.15453e-06
-6.15428e-08
-8.16659e-06
-8.11785e-08
-8.1761e-06
-1.00277e-07
-8.18735e-06
-1.18743e-07
-8.20192e-06
-1.36403e-07
-8.22085e-06
-1.53063e-07
-8.24468e-06
-1.68569e-07
-8.27348e-06
-1.82871e-07
-8.3069e-06
-1.96099e-07
-8.34435e-06
-2.08445e-07
-8.38516e-06
-2.19963e-07
-8.42879e-06
-2.30528e-07
-8.47479e-06
-2.39955e-07
-8.52284e-06
-2.48051e-07
-8.5726e-06
-2.54623e-07
-8.62366e-06
-2.59476e-07
-8.67554e-06
-2.62414e-07
-8.72776e-06
-2.63258e-07
-8.77988e-06
-2.61851e-07
-8.8314e-06
-2.58056e-07
-8.8818e-06
-2.51741e-07
-8.93047e-06
-2.42784e-07
-8.97676e-06
-2.31082e-07
-9.02003e-06
-2.165e-07
-9.05958e-06
-1.98887e-07
-9.09474e-06
-1.78109e-07
-9.12473e-06
-1.54055e-07
-9.14876e-06
-1.26644e-07
-9.16603e-06
-9.58355e-08
-9.1757e-06
-6.16958e-08
-9.1768e-06
-2.43117e-08
-9.16835e-06
1.64348e-08
-9.14975e-06
6.0728e-08
-9.12052e-06
1.08611e-07
-9.07971e-06
1.60024e-07
-9.02634e-06
2.14861e-07
-8.95952e-06
2.72977e-07
-8.87844e-06
3.34191e-07
-8.78232e-06
3.98278e-07
-8.67046e-06
4.6498e-07
-8.54221e-06
5.33999e-07
-8.39697e-06
6.05011e-07
-8.23422e-06
6.77667e-07
-8.05353e-06
7.516e-07
-7.85455e-06
8.26433e-07
-7.63699e-06
9.01793e-07
-7.4007e-06
9.77317e-07
-7.14557e-06
1.05268e-06
-6.87163e-06
1.12761e-06
-6.57898e-06
1.20192e-06
-6.26779e-06
1.2755e-06
-5.93833e-06
1.34841e-06
-5.59091e-06
1.4209e-06
-5.22591e-06
1.49349e-06
-4.84376e-06
1.56707e-06
-4.4449e-06
1.64308e-06
-4.02986e-06
1.72362e-06
-3.59925e-06
1.81182e-06
-3.15386e-06
1.91212e-06
-2.69491e-06
2.03075e-06
-2.22441e-06
2.17611e-06
-1.7459e-06
2.35839e-06
-1.26558e-06
2.58652e-06
-7.93596e-07
2.87903e-06
-3.44373e-07
3.22076e-06
5.28924e-08
3.57697e-06
3.72111e-07
3.90436e-06
5.95011e-07
4.16227e-06
7.30329e-07
4.33373e-06
7.99743e-07
4.42104e-06
8.30695e-07
4.43771e-06
8.4566e-07
4.40074e-06
8.58427e-07
4.32418e-06
8.7508e-07
4.21718e-06
8.96736e-07
4.08542e-06
9.2152e-07
3.93171e-06
9.46941e-07
3.75674e-06
9.71239e-07
3.55994e-06
9.93821e-07
3.34016e-06
1.01499e-06
3.0962e-06
1.03552e-06
2.82689e-06
1.05667e-06
2.53094e-06
1.08036e-06
2.20705e-06
1.10909e-06
1.85351e-06
1.14607e-06
1.46801e-06
1.1956e-06
1.04793e-06
1.26329e-06
5.8979e-07
1.35585e-06
8.98061e-08
1.48141e-06
-4.54843e-07
1.65161e-06
-1.04562e-06
1.87439e-06
-1.67884e-06
2.18206e-06
-2.34604e-06
2.55738e-06
-3.03258e-06
3.10084e-06
-3.7019e-06
3.68448e-06
-4.39151e-06
4.46181e-06
-5.01711e-06
4.99549e-06
-6.00247e-06
4.28697e-06
-7.76318e-06
1.297e-06
-9.06423e-06
-1.23855e-06
-9.87519e-06
-1.63515e-05
-1.1642e-05
-1.46469e-05
-1.27881e-05
-1.18921e-05
-1.39161e-05
-1.04256e-05
-1.45649e-05
-8.41145e-06
-1.49746e-05
-6.5422e-06
-1.50928e-05
-4.69716e-06
-1.50641e-05
-3.01435e-06
-1.49371e-06
-2.44404e-08
-8.05466e-06
-4.89486e-08
-8.13002e-06
-7.30002e-08
-8.14254e-06
-9.65172e-08
-8.15259e-06
-1.19414e-07
-8.16445e-06
-1.41501e-07
-8.17983e-06
-1.62517e-07
-8.19983e-06
-1.82246e-07
-8.22495e-06
-2.00633e-07
-8.25509e-06
-2.17886e-07
-8.28965e-06
-2.34265e-07
-8.32797e-06
-2.4973e-07
-8.36969e-06
-2.64051e-07
-8.41447e-06
-2.76969e-07
-8.46187e-06
-2.88275e-07
-8.51154e-06
-2.97784e-07
-8.56309e-06
-3.05301e-07
-8.61614e-06
-3.10618e-07
-8.67022e-06
-3.13522e-07
-8.72486e-06
-3.13807e-07
-8.77959e-06
-3.11283e-07
-8.83393e-06
-3.05765e-07
-8.88732e-06
-2.97056e-07
-8.93918e-06
-2.8497e-07
-8.98885e-06
-2.69346e-07
-9.03565e-06
-2.50055e-07
-9.07887e-06
-2.26998e-07
-9.1178e-06
-2.00059e-07
-9.15167e-06
-1.69113e-07
-9.17971e-06
-1.34099e-07
-9.20105e-06
-9.50591e-08
-9.21474e-06
-5.20029e-08
-9.21986e-06
-4.65478e-09
-9.21569e-06
4.7202e-08
-9.2016e-06
1.03503e-07
-9.17682e-06
1.64165e-07
-9.14037e-06
2.29104e-07
-9.09128e-06
2.98205e-07
-9.02863e-06
3.71301e-07
-8.95154e-06
4.48174e-07
-8.8592e-06
5.28554e-07
-8.75084e-06
6.12122e-07
-8.62578e-06
6.9852e-07
-8.48337e-06
7.87349e-07
-8.32305e-06
8.78179e-07
-8.14437e-06
9.7056e-07
-7.94693e-06
1.06403e-06
-7.73046e-06
1.15811e-06
-7.49478e-06
1.25236e-06
-7.23982e-06
1.34637e-06
-6.96564e-06
1.43976e-06
-6.67238e-06
1.53228e-06
-6.36031e-06
1.62376e-06
-6.02981e-06
1.71419e-06
-5.68134e-06
1.80379e-06
-5.3155e-06
1.89301e-06
-4.93298e-06
1.98272e-06
-4.5346e-06
2.07422e-06
-4.12136e-06
2.16944e-06
-3.69447e-06
2.27105e-06
-3.25549e-06
2.38269e-06
-2.80656e-06
2.509e-06
-2.35075e-06
2.65557e-06
-1.89253e-06
2.82837e-06
-1.43846e-06
3.03254e-06
-9.97862e-07
3.27112e-06
-5.83027e-07
3.5333e-06
-2.09325e-07
3.79632e-06
1.09086e-07
4.03766e-06
3.53686e-07
4.23249e-06
5.35524e-07
4.36646e-06
6.65785e-07
4.43716e-06
7.59999e-07
4.45043e-06
8.32385e-07
4.4163e-06
8.92551e-07
4.34393e-06
9.47446e-07
4.24014e-06
1.00052e-06
4.10981e-06
1.05185e-06
3.95588e-06
1.10088e-06
3.77963e-06
1.14749e-06
3.58119e-06
1.19226e-06
3.36017e-06
1.23601e-06
3.11617e-06
1.27952e-06
2.84879e-06
1.32404e-06
2.55748e-06
1.37167e-06
2.24139e-06
1.42518e-06
1.89944e-06
1.48802e-06
1.53042e-06
1.56462e-06
1.13324e-06
1.66048e-06
7.06872e-07
1.78221e-06
2.50503e-07
1.93778e-06
-2.35236e-07
2.13735e-06
-7.49323e-07
2.38848e-06
-1.28538e-06
2.71811e-06
-1.83391e-06
3.1059e-06
-2.38482e-06
3.65174e-06
-2.90821e-06
4.20787e-06
-3.43171e-06
4.98531e-06
-3.85752e-06
5.42131e-06
-4.60206e-06
5.03151e-06
-6.25578e-06
2.95072e-06
-7.5856e-06
9.12667e-08
-8.45285e-06
-1.54843e-05
-9.87019e-06
-1.32296e-05
-1.09159e-05
-1.08464e-05
-1.19056e-05
-9.43586e-06
-1.25867e-05
-7.73037e-06
-1.30506e-05
-6.07835e-06
-1.33025e-05
-4.44524e-06
-1.34153e-05
-2.90148e-06
-1.45369e-06
-2.84583e-08
-8.0262e-06
-5.70948e-08
-8.10139e-06
-8.5324e-08
-8.11431e-06
-1.13009e-07
-8.1249e-06
-1.39973e-07
-8.13749e-06
-1.65898e-07
-8.1539e-06
-1.90414e-07
-8.17532e-06
-2.13348e-07
-8.20202e-06
-2.34963e-07
-8.23348e-06
-2.55643e-07
-8.26897e-06
-2.75319e-07
-8.30829e-06
-2.93701e-07
-8.35131e-06
-3.10539e-07
-8.39763e-06
-3.25607e-07
-8.44681e-06
-3.38687e-07
-8.49846e-06
-3.4957e-07
-8.55221e-06
-3.5804e-07
-8.60767e-06
-3.63866e-07
-8.66439e-06
-3.66809e-07
-8.72191e-06
-3.66636e-07
-8.77976e-06
-3.63122e-07
-8.83744e-06
-3.56047e-07
-8.8944e-06
-3.45191e-07
-8.95003e-06
-3.30333e-07
-9.0037e-06
-3.11255e-07
-9.05473e-06
-2.87759e-07
-9.10237e-06
-2.59695e-07
-9.14586e-06
-2.26951e-07
-9.18441e-06
-1.8945e-07
-9.21721e-06
-1.4711e-07
-9.24339e-06
-9.98122e-08
-9.26204e-06
-4.73917e-08
-9.27228e-06
1.03235e-08
-9.27341e-06
7.33831e-08
-9.26466e-06
1.41712e-07
-9.24515e-06
2.15234e-07
-9.2139e-06
2.93852e-07
-9.1699e-06
3.77425e-07
-9.1122e-06
4.65755e-07
-9.03987e-06
5.58582e-07
-8.95202e-06
6.55588e-07
-8.84785e-06
7.56396e-07
-8.72659e-06
8.60577e-07
-8.58755e-06
9.67654e-07
-8.43013e-06
1.07711e-06
-8.25383e-06
1.1884e-06
-8.05822e-06
1.30096e-06
-7.84302e-06
1.41421e-06
-7.60803e-06
1.5276e-06
-7.35321e-06
1.6406e-06
-7.07863e-06
1.75273e-06
-6.78452e-06
1.86362e-06
-6.4712e-06
1.973e-06
-6.13918e-06
2.08074e-06
-5.7891e-06
2.18696e-06
-5.42172e-06
2.292e-06
-5.03801e-06
2.39652e-06
-4.63913e-06
2.50162e-06
-4.22646e-06
2.60883e-06
-3.80168e-06
2.72025e-06
-3.3669e-06
2.83855e-06
-2.92484e-06
2.96691e-06
-2.47908e-06
3.10872e-06
-2.03431e-06
3.267e-06
-1.59672e-06
3.4433e-06
-1.17414e-06
3.63621e-06
-7.75901e-07
3.83921e-06
-4.12281e-07
4.04108e-06
-9.27442e-08
4.21864e-06
1.76161e-07
4.36113e-06
3.93045e-07
4.45859e-06
5.6833e-07
4.50763e-06
7.10952e-07
4.51014e-06
8.29867e-07
4.47105e-06
9.31629e-07
4.39618e-06
1.02232e-06
4.29084e-06
1.10587e-06
4.15894e-06
1.18375e-06
4.00306e-06
1.25676e-06
3.82464e-06
1.32592e-06
3.6243e-06
1.3926e-06
3.4024e-06
1.4579e-06
3.15923e-06
1.52269e-06
2.89495e-06
1.58832e-06
2.60961e-06
1.65701e-06
2.30316e-06
1.73163e-06
1.97543e-06
1.81575e-06
1.62629e-06
1.91376e-06
1.25581e-06
2.03096e-06
8.64398e-07
2.17362e-06
4.53024e-07
2.34915e-06
2.41513e-08
2.56622e-06
-4.20717e-07
2.83335e-06
-8.73889e-07
3.17128e-06
-1.32425e-06
3.55626e-06
-1.76483e-06
4.09231e-06
-2.16707e-06
4.61012e-06
-2.54095e-06
5.35919e-06
-2.80045e-06
5.68081e-06
-3.34013e-06
5.57119e-06
-5.02445e-06
4.63504e-06
-6.31871e-06
1.38553e-06
-7.16212e-06
-1.46409e-05
-8.37521e-06
-1.20165e-05
-9.34393e-06
-9.87769e-06
-1.02076e-05
-8.57221e-06
-1.08655e-05
-7.07241e-06
-1.13396e-05
-5.60428e-06
-1.16458e-05
-4.139e-06
-1.18227e-05
-2.7246e-06
-1.36834e-06
-3.27136e-08
-7.99349e-06
-6.5698e-08
-8.0684e-06
-9.83072e-08
-8.0817e-06
-1.30348e-07
-8.09286e-06
-1.61527e-07
-8.10631e-06
-1.91347e-07
-8.12408e-06
-2.19364e-07
-8.1473e-06
-2.45728e-07
-8.17566e-06
-2.71048e-07
-8.20816e-06
-2.95353e-07
-8.24467e-06
-3.18282e-07
-8.28536e-06
-3.39575e-07
-8.33002e-06
-3.59012e-07
-8.37819e-06
-3.76356e-07
-8.42946e-06
-3.91369e-07
-8.48344e-06
-4.0381e-07
-8.53977e-06
-4.13433e-07
-8.59804e-06
-4.19978e-07
-8.65785e-06
-4.23178e-07
-8.71871e-06
-4.22766e-07
-8.78017e-06
-4.18485e-07
-8.84172e-06
-4.1008e-07
-8.9028e-06
-3.97296e-07
-8.96281e-06
-3.79885e-07
-9.02111e-06
-3.57604e-07
-9.07701e-06
-3.30224e-07
-9.12975e-06
-2.97526e-07
-9.17856e-06
-2.59328e-07
-9.22261e-06
-2.15481e-07
-9.26106e-06
-1.65841e-07
-9.29303e-06
-1.10235e-07
-9.31764e-06
-4.84702e-08
-9.33404e-06
1.95389e-08
-9.34142e-06
9.37907e-08
-9.33891e-06
1.74224e-07
-9.32558e-06
2.60755e-07
-9.30043e-06
3.53264e-07
-9.26241e-06
4.5158e-07
-9.21052e-06
5.55469e-07
-9.14376e-06
6.64629e-07
-9.06119e-06
7.78689e-07
-8.96191e-06
8.97208e-07
-8.84511e-06
1.01968e-06
-8.71003e-06
1.14555e-06
-8.556e-06
1.2742e-06
-8.38248e-06
1.40497e-06
-8.189e-06
1.53719e-06
-7.97524e-06
1.67017e-06
-7.74101e-06
1.80321e-06
-7.48625e-06
1.93565e-06
-7.21108e-06
2.0669e-06
-6.91576e-06
2.19641e-06
-6.60072e-06
2.32377e-06
-6.26655e-06
2.44873e-06
-5.91406e-06
2.57122e-06
-5.54421e-06
2.6914e-06
-5.15819e-06
2.8097e-06
-4.75743e-06
2.92688e-06
-4.34363e-06
3.04404e-06
-3.91884e-06
3.16265e-06
-3.48551e-06
3.28453e-06
-3.0467e-06
3.41166e-06
-2.60614e-06
3.54587e-06
-2.16845e-06
3.68843e-06
-1.73921e-06
3.83927e-06
-1.32492e-06
3.99619e-06
-9.32773e-07
4.15395e-06
-5.70004e-07
4.30395e-06
-2.42731e-07
4.43377e-06
4.63454e-08
4.53436e-06
2.92438e-07
4.59912e-06
5.03556e-07
4.62517e-06
6.84888e-07
4.61296e-06
8.42075e-07
4.5643e-06
9.80285e-07
4.48265e-06
1.10398e-06
4.37196e-06
1.21657e-06
4.23537e-06
1.32034e-06
4.07516e-06
1.41697e-06
3.89286e-06
1.50821e-06
3.6896e-06
1.59586e-06
3.46633e-06
1.68117e-06
3.22385e-06
1.76517e-06
2.96279e-06
1.84939e-06
2.68368e-06
1.93611e-06
2.38712e-06
2.02819e-06
2.07369e-06
2.12918e-06
1.74419e-06
2.24327e-06
1.39966e-06
2.37549e-06
1.04166e-06
2.53162e-06
6.72442e-07
2.71837e-06
2.95449e-07
2.94322e-06
-8.53339e-08
3.21413e-06
-4.61936e-07
3.54788e-06
-8.23969e-07
3.9183e-06
-1.16679e-06
4.43513e-06
-1.46008e-06
4.90342e-06
-1.70932e-06
5.60843e-06
-1.85075e-06
5.82224e-06
-2.20483e-06
5.92527e-06
-3.92056e-06
6.35077e-06
-5.14827e-06
2.61324e-06
-5.94634e-06
-1.38428e-05
-7.00989e-06
-1.0953e-05
-7.91481e-06
-8.97277e-06
-8.68479e-06
-7.80223e-06
-9.31448e-06
-6.44272e-06
-9.79114e-06
-5.12762e-06
-1.01256e-05
-3.80453e-06
-1.03371e-05
-2.5131e-06
-1.26195e-06
-3.71723e-08
-7.95632e-06
-7.4691e-08
-8.03088e-06
-1.11845e-07
-8.04455e-06
-1.48385e-07
-8.05632e-06
-1.83839e-07
-8.07086e-06
-2.17525e-07
-8.0904e-06
-2.49185e-07
-8.11564e-06
-2.79553e-07
-8.14529e-06
-3.08932e-07
-8.17878e-06
-3.36931e-07
-8.21667e-06
-3.63231e-07
-8.25906e-06
-3.87619e-07
-8.30563e-06
-4.09861e-07
-8.35595e-06
-4.29703e-07
-8.40962e-06
-4.46879e-07
-8.46627e-06
-4.61119e-07
-8.52553e-06
-4.72144e-07
-8.58702e-06
-4.79665e-07
-8.65032e-06
-4.83383e-07
-8.715e-06
-4.82999e-07
-8.78056e-06
-4.78217e-07
-8.8465e-06
-4.68745e-07
-8.91227e-06
-4.54289e-07
-8.97727e-06
-4.34562e-07
-9.04084e-06
-4.09284e-07
-9.10228e-06
-3.78181e-07
-9.16085e-06
-3.40992e-07
-9.21574e-06
-2.97475e-07
-9.26612e-06
-2.47401e-07
-9.31113e-06
-1.90559e-07
-9.34987e-06
-1.26751e-07
-9.38145e-06
-5.58106e-08
-9.40498e-06
2.2348e-08
-9.41957e-06
1.07735e-07
-9.4243e-06
2.00305e-07
-9.41815e-06
2.99961e-07
-9.40008e-06
4.06556e-07
-9.369e-06
5.19886e-07
-9.32385e-06
6.39683e-07
-9.26355e-06
7.65593e-07
-9.1871e-06
8.97189e-07
-9.09351e-06
1.03396e-06
-8.98188e-06
1.17532e-06
-8.85139e-06
1.32062e-06
-8.7013e-06
1.46913e-06
-8.53099e-06
1.62008e-06
-8.33995e-06
1.77266e-06
-8.12782e-06
1.92604e-06
-7.89438e-06
2.07938e-06
-7.63959e-06
2.23186e-06
-7.36356e-06
2.38271e-06
-7.06661e-06
2.53123e-06
-6.74923e-06
2.67681e-06
-6.41215e-06
2.81903e-06
-6.05628e-06
2.95758e-06
-5.68277e-06
3.09242e-06
-5.29302e-06
3.22369e-06
-4.8887e-06
3.3518e-06
-4.47175e-06
3.47742e-06
-4.04448e-06
3.60147e-06
-3.6096e-06
3.72504e-06
-3.17028e-06
3.84919e-06
-2.7303e-06
3.97476e-06
-2.29402e-06
4.10198e-06
-1.86642e-06
4.23005e-06
-1.45299e-06
4.35669e-06
-1.05942e-06
4.47774e-06
-6.91075e-07
4.58728e-06
-3.52295e-07
4.67899e-06
-4.53905e-08
4.74386e-06
2.27543e-07
4.77906e-06
4.6834e-07
4.78197e-06
6.81975e-07
4.75197e-06
8.72079e-07
4.69011e-06
1.04215e-06
4.59839e-06
1.19571e-06
4.47947e-06
1.33549e-06
4.3358e-06
1.46401e-06
4.16944e-06
1.58334e-06
3.98198e-06
1.69566e-06
3.77495e-06
1.80289e-06
3.5497e-06
1.90641e-06
3.30739e-06
2.00748e-06
3.04903e-06
2.10775e-06
2.77565e-06
2.20948e-06
2.48835e-06
2.3155e-06
2.18838e-06
2.42915e-06
1.87723e-06
2.55442e-06
1.55684e-06
2.69588e-06
1.22968e-06
2.85878e-06
8.98965e-07
3.04908e-06
5.69131e-07
3.27305e-06
2.46081e-07
3.53718e-06
-6.10539e-08
3.85502e-06
-3.51824e-07
4.20906e-06
-6.05845e-07
4.68915e-06
-8.05894e-07
5.10346e-06
-9.48957e-07
5.75149e-06
-9.8252e-07
5.8558e-06
-1.18411e-06
6.12686e-06
-2.94225e-06
8.10891e-06
-4.12071e-06
3.7917e-06
-4.81439e-06
-1.31491e-05
-5.78604e-06
-9.9813e-06
-6.60307e-06
-8.15573e-06
-7.32016e-06
-7.08514e-06
-7.91872e-06
-5.84416e-06
-8.38657e-06
-4.65977e-06
-8.72887e-06
-3.46223e-06
-8.95409e-06
-2.28788e-06
-1.14755e-06
-4.18165e-08
-7.9145e-06
-8.40406e-08
-7.98866e-06
-1.25891e-07
-8.0027e-06
-1.67063e-07
-8.01515e-06
-2.06841e-07
-8.03108e-06
-2.44402e-07
-8.05283e-06
-2.80244e-07
-8.0798e-06
-3.15136e-07
-8.11039e-06
-3.48712e-07
-8.1452e-06
-3.80547e-07
-8.18483e-06
-4.10433e-07
-8.22918e-06
-4.38147e-07
-8.27791e-06
-4.63437e-07
-8.33066e-06
-4.86027e-07
-8.38703e-06
-5.05626e-07
-8.44667e-06
-5.21934e-07
-8.50922e-06
-5.3464e-07
-8.57431e-06
-5.43422e-07
-8.64154e-06
-5.47949e-07
-8.71047e-06
-5.47887e-07
-8.78062e-06
-5.42898e-07
-8.85149e-06
-5.32649e-07
-8.92252e-06
-5.16804e-07
-8.99311e-06
-4.95031e-07
-9.06261e-06
-4.67001e-07
-9.13031e-06
-4.32394e-07
-9.19546e-06
-3.90897e-07
-9.25724e-06
-3.42211e-07
-9.31481e-06
-2.86054e-07
-9.36728e-06
-2.22165e-07
-9.41376e-06
-1.50315e-07
-9.4533e-06
-7.0328e-08
-9.48497e-06
1.79035e-08
-9.50781e-06
1.14401e-07
-9.5208e-06
2.19146e-07
-9.5229e-06
3.32041e-07
-9.51298e-06
4.5292e-07
-9.48988e-06
5.81555e-07
-9.45248e-06
7.17628e-07
-9.39963e-06
8.60744e-07
-9.33021e-06
1.01041e-06
-9.24318e-06
1.16605e-06
-9.13752e-06
1.32698e-06
-9.01233e-06
1.49245e-06
-8.86677e-06
1.66161e-06
-8.70015e-06
1.83356e-06
-8.5119e-06
2.00735e-06
-8.30161e-06
2.18197e-06
-8.06901e-06
2.35642e-06
-7.81404e-06
2.5297e-06
-7.53684e-06
2.70084e-06
-7.23774e-06
2.86893e-06
-6.91733e-06
3.03317e-06
-6.57639e-06
3.19289e-06
-6.21599e-06
3.34755e-06
-5.83744e-06
3.49683e-06
-5.4423e-06
3.64059e-06
-5.03244e-06
3.77889e-06
-4.61005e-06
3.91199e-06
-4.17761e-06
4.04035e-06
-3.73799e-06
4.16447e-06
-3.29446e-06
4.28483e-06
-2.85071e-06
4.40162e-06
-2.41085e-06
4.51455e-06
-1.97938e-06
4.62253e-06
-1.56102e-06
4.72354e-06
-1.16046e-06
4.81445e-06
-7.8202e-07
4.89123e-06
-4.29109e-07
4.9495e-06
-1.03677e-07
4.98403e-06
1.93001e-07
4.99194e-06
4.60431e-07
4.97164e-06
7.02281e-07
4.92264e-06
9.21083e-07
4.84519e-06
1.11961e-06
4.74082e-06
1.30009e-06
4.61125e-06
1.46505e-06
4.45845e-06
1.61681e-06
4.28423e-06
1.75756e-06
4.09033e-06
1.88955e-06
3.87847e-06
2.01475e-06
3.65027e-06
2.13461e-06
3.40717e-06
2.25057e-06
3.15053e-06
2.36439e-06
2.88175e-06
2.47826e-06
2.6024e-06
2.59485e-06
2.31427e-06
2.71728e-06
2.01948e-06
2.8492e-06
1.7206e-06
2.99476e-06
1.42083e-06
3.15856e-06
1.12408e-06
3.34583e-06
8.35373e-07
3.56175e-06
5.61181e-07
3.81137e-06
3.08141e-07
4.10805e-06
8.48771e-08
4.43232e-06
-8.58008e-08
4.85982e-06
-2.14225e-07
5.23189e-06
-2.57481e-07
5.79474e-06
-2.04833e-07
5.80315e-06
-2.74627e-07
6.19665e-06
-1.95443e-06
9.78871e-06
-3.15372e-06
4.99099e-06
-3.76395e-06
-1.25389e-05
-4.68476e-06
-9.06049e-06
-5.40522e-06
-7.43527e-06
-6.08844e-06
-6.40193e-06
-6.65757e-06
-5.27503e-06
-7.11345e-06
-4.20389e-06
-7.45497e-06
-3.12071e-06
-7.68342e-06
-2.05943e-06
-1.03246e-06
-4.66388e-08
-7.86786e-06
-9.37276e-08
-7.94157e-06
-1.40418e-07
-7.95601e-06
-1.86308e-07
-7.96926e-06
-2.30466e-07
-7.98692e-06
-2.72251e-07
-8.01105e-06
-3.12989e-07
-8.03906e-06
-3.52601e-07
-8.07078e-06
-3.9048e-07
-8.10733e-06
-4.26379e-07
-8.14893e-06
-4.601e-07
-8.19546e-06
-4.91401e-07
-8.24661e-06
-5.20012e-07
-8.30205e-06
-5.45633e-07
-8.36141e-06
-5.67947e-07
-8.42435e-06
-5.86625e-07
-8.49054e-06
-6.01323e-07
-8.55961e-06
-6.11686e-07
-8.63118e-06
-6.17348e-07
-8.7048e-06
-6.17935e-07
-8.78003e-06
-6.1307e-07
-8.85635e-06
-6.02371e-07
-8.93322e-06
-5.85458e-07
-9.01002e-06
-5.61948e-07
-9.08612e-06
-5.31462e-07
-9.1608e-06
-4.93625e-07
-9.23329e-06
-4.48071e-07
-9.30279e-06
-3.94445e-07
-9.36843e-06
-3.32414e-07
-9.42931e-06
-2.61671e-07
-9.4845e-06
-1.81951e-07
-9.53302e-06
-9.30448e-08
-9.57388e-06
5.18529e-09
-9.60604e-06
1.12777e-07
-9.62839e-06
2.29769e-07
-9.63989e-06
3.56028e-07
-9.63924e-06
4.91411e-07
-9.62527e-06
6.3565e-07
-9.59672e-06
7.8841e-07
-9.55239e-06
9.49239e-07
-9.49104e-06
1.11758e-06
-9.41152e-06
1.29278e-06
-9.31272e-06
1.47406e-06
-9.19361e-06
1.66055e-06
-9.05327e-06
1.85128e-06
-8.89089e-06
2.04521e-06
-8.70583e-06
2.2412e-06
-8.4976e-06
2.43808e-06
-8.26589e-06
2.63464e-06
-8.0106e-06
2.82968e-06
-7.73187e-06
3.022e-06
-7.43006e-06
3.21047e-06
-7.1058e-06
3.39403e-06
-6.75996e-06
3.57175e-06
-6.39372e-06
3.74284e-06
-6.00852e-06
3.90667e-06
-5.60612e-06
4.0628e-06
-5.18856e-06
4.21096e-06
-4.75819e-06
4.35106e-06
-4.3177e-06
4.48314e-06
-3.87007e-06
4.60729e-06
-3.41863e-06
4.72358e-06
-2.96702e-06
4.83184e-06
-2.51915e-06
4.93158e-06
-2.07915e-06
5.02171e-06
-1.65118e-06
5.10055e-06
-1.23932e-06
5.16577e-06
-8.47251e-07
5.21457e-06
-4.77916e-07
5.24405e-06
-1.33152e-07
5.25103e-06
1.86027e-07
5.23357e-06
4.77904e-07
5.19059e-06
7.45275e-07
5.12154e-06
9.90143e-07
5.02703e-06
1.21412e-06
4.9079e-06
1.41922e-06
4.76559e-06
1.60736e-06
4.60175e-06
1.78064e-06
4.41805e-06
1.94125e-06
4.21629e-06
2.09131e-06
3.99829e-06
2.23274e-06
3.76584e-06
2.36706e-06
3.52062e-06
2.4958e-06
3.26425e-06
2.62076e-06
2.99847e-06
2.74404e-06
2.72521e-06
2.86811e-06
2.4467e-06
2.9958e-06
2.16555e-06
3.13036e-06
1.88487e-06
3.27543e-06
1.60839e-06
3.43504e-06
1.34052e-06
3.6137e-06
1.08674e-06
3.81552e-06
8.5379e-07
4.04432e-06
6.49205e-07
4.31264e-06
4.83916e-07
4.59761e-06
3.69608e-07
4.97413e-06
3.17026e-07
5.28447e-06
3.5307e-07
5.7587e-06
4.64156e-07
5.69206e-06
5.13303e-07
6.1475e-06
-8.92627e-07
1.11946e-05
-2.16715e-06
6.26551e-06
-2.79141e-06
-1.19147e-05
-3.67097e-06
-8.18093e-06
-4.31367e-06
-6.79257e-06
-4.97409e-06
-5.74151e-06
-5.51704e-06
-4.73208e-06
-5.96214e-06
-3.75879e-06
-6.29957e-06
-2.78329e-06
-6.52633e-06
-1.83267e-06
-9.20314e-07
-5.16487e-08
-7.81621e-06
-1.03778e-07
-7.88944e-06
-1.55475e-07
-7.90431e-06
-2.06107e-07
-7.91863e-06
-2.5481e-07
-7.93822e-06
-3.01752e-07
-7.96411e-06
-3.47646e-07
-7.99317e-06
-3.91974e-07
-8.02645e-06
-4.34362e-07
-8.06494e-06
-4.74586e-07
-8.10871e-06
-5.12417e-07
-8.15763e-06
-5.47597e-07
-8.21143e-06
-5.79832e-07
-8.26981e-06
-6.088e-07
-8.33244e-06
-6.34157e-07
-8.39899e-06
-6.55543e-07
-8.46915e-06
-6.72582e-07
-8.54257e-06
-6.84884e-07
-8.61887e-06
-6.92046e-07
-8.69764e-06
-6.93653e-07
-8.77842e-06
-6.89283e-07
-8.86072e-06
-6.78508e-07
-8.94399e-06
-6.60895e-07
-9.02764e-06
-6.36009e-07
-9.11101e-06
-6.03415e-07
-9.19339e-06
-5.6268e-07
-9.27403e-06
-5.13381e-07
-9.35209e-06
-4.55106e-07
-9.42671e-06
-3.87467e-07
-9.49695e-06
-3.10106e-07
-9.56186e-06
-2.22714e-07
-9.62041e-06
-1.2504e-07
-9.67155e-06
-1.69079e-08
-9.71417e-06
1.01803e-07
-9.7471e-06
2.31052e-07
-9.76914e-06
3.70827e-07
-9.77901e-06
5.2094e-07
-9.77538e-06
6.81139e-07
-9.75692e-06
8.51032e-07
-9.72228e-06
1.03013e-06
-9.67015e-06
1.21783e-06
-9.59922e-06
1.41337e-06
-9.50826e-06
1.61588e-06
-9.39613e-06
1.82438e-06
-9.26177e-06
2.03775e-06
-9.10427e-06
2.25478e-06
-8.92286e-06
2.47416e-06
-8.71697e-06
2.6945e-06
-8.48623e-06
2.91439e-06
-8.23049e-06
3.13237e-06
-7.94985e-06
3.347e-06
-7.6447e-06
3.55689e-06
-7.31568e-06
3.76069e-06
-6.96377e-06
3.9572e-06
-6.59023e-06
4.14531e-06
-6.19665e-06
4.32412e-06
-5.78493e-06
4.49286e-06
-5.35729e-06
4.65096e-06
-4.91626e-06
4.79798e-06
-4.46469e-06
4.93365e-06
-4.00571e-06
5.05774e-06
-3.54271e-06
5.17004e-06
-3.07931e-06
5.27022e-06
-2.61933e-06
5.35773e-06
-2.16665e-06
5.43169e-06
-1.72513e-06
5.49079e-06
-1.29842e-06
5.53338e-06
-8.89821e-07
5.55753e-06
-5.02052e-07
5.56133e-06
-1.36932e-07
5.543e-06