/*--------------------------------*- C++ -*----------------------------------*\
| =========                 |                                                 |
| \\      /  F ield         | OpenFOAM: The Open Source CFD Toolbox           |
|  \\    /   O peration     | Version:  v2106                                 |
|   \\  /    A nd           | Website:  www.openfoam.com                      |
|    \\/     M anipulation  |                                                 |
\*---------------------------------------------------------------------------*/
FoamFile
{
    version     2.0;
    format      ascii;
    arch        "LSB;label=32;scalar=64";
    class       volVectorField;
    location    "1.3";
    object      U;
}
// * * * * * * * * * * * * * * * * * * * * * * * * * * * * * * * * * * * * * //

dimensions      [0 1 -1 0 0 0 0];

internalField   nonuniform List<vector> 
29678
(
(-0.0678836 1.90741e-23 -5.895e-05)
(-0.0685052 2.23539e-22 -0.000172937)
(-0.0685844 4.90489e-22 -0.000282879)
(-0.0686429 3.69334e-20 -0.000383484)
(-0.0687197 3.45555e-19 -0.000478618)
(-0.0688258 3.74219e-19 -0.000570498)
(-0.0689667 2.51937e-19 -0.000660311)
(-0.0691446 3.00409e-19 -0.000748155)
(-0.0693592 -6.27352e-19 -0.000833405)
(-0.0696081 2.91619e-19 -0.000914954)
(-0.0698884 -8.21117e-19 -0.000991371)
(-0.070197 3.27875e-19 -0.00106143)
(-0.0705302 -7.05203e-19 -0.00112437)
(-0.0708841 3.25391e-19 -0.00118023)
(-0.0712552 -7.93344e-19 -0.00122948)
(-0.0716402 4.14769e-19 -0.00127298)
(-0.0720342 -7.25463e-19 -0.00131146)
(-0.0724324 -6.97716e-19 -0.00134538)
(-0.0728301 2.7596e-19 -0.00137491)
(-0.0732235 -7.79554e-19 -0.00140007)
(-0.0736089 -8.71676e-19 -0.00142064)
(-0.0739816 -7.83849e-19 -0.00143626)
(-0.0743361 -3.79045e-20 -0.00144635)
(-0.0746668 2.70895e-20 -0.00145018)
(-0.0749683 -4.06023e-19 -0.00144693)
(-0.0752349 -1.28023e-19 -0.00143577)
(-0.0754607 -2.81989e-19 -0.00141584)
(-0.0756398 4.30772e-19 -0.00138635)
(-0.0757663 -8.65936e-19 -0.00134657)
(-0.0758338 -8.57242e-19 -0.00129581)
(-0.0758361 -8.6794e-19 -0.00123356)
(-0.0757672 -3.95076e-20 -0.00115951)
(-0.0756212 5.96627e-20 -0.00107379)
(-0.0753926 3.11131e-19 -0.000976335)
(-0.0750739 4.66367e-19 -0.000868988)
(-0.0746588 3.29642e-19 -0.000754382)
(-0.0741404 4.2684e-19 -0.000633159)
(-0.0735101 3.1843e-19 -0.000504567)
(-0.0727627 2.82667e-19 -0.000368216)
(-0.0718934 3.57121e-19 -0.00022397)
(-0.0708974 2.54032e-19 -7.20218e-05)
(-0.0697703 4.61259e-19 8.72201e-05)
(-0.0685079 2.66831e-19 0.000253181)
(-0.0671069 3.17931e-19 0.000425114)
(-0.0655641 2.31318e-19 0.000602134)
(-0.0638771 -3.6578e-19 0.000783236)
(-0.0620439 3.05344e-19 0.000967306)
(-0.0600633 2.41268e-19 0.00115315)
(-0.0579341 3.54652e-19 0.00133954)
(-0.0556559 2.37057e-19 0.00152523)
(-0.0532284 3.12164e-19 0.00170898)
(-0.0506517 3.23885e-19 0.00188964)
(-0.0479256 2.87429e-19 0.00206621)
(-0.0450496 1.4645e-19 0.00223792)
(-0.0420224 2.86705e-20 0.00240436)
(-0.0388411 2.72671e-19 0.00256565)
(-0.0355003 1.44893e-19 0.00272272)
(-0.0319909 2.02349e-19 0.00287777)
(-0.0282975 1.4912e-19 0.00303538)
(-0.0243943 2.09341e-19 0.0032047)
(-0.020238 1.44092e-19 0.00340476)
(-0.0157543 1.61138e-19 0.00367796)
(-0.0108114 1.0056e-19 0.00412526)
(-0.00516886 1.17871e-19 0.00499035)
(0.00162575 1.41857e-19 0.00659651)
(0.0100512 1.10303e-19 0.00967474)
(0.018737 -3.17649e-21 0.0151749)
(0.0239161 2.75352e-20 0.0226563)
(0.0232467 -1.41827e-19 0.0300789)
(0.0186314 3.51387e-20 0.0354836)
(0.0133135 -1.52653e-20 0.0382174)
(0.00907988 -2.27185e-20 0.0389124)
(0.00628662 -6.58685e-20 0.0385069)
(0.00466582 -1.12468e-20 0.0375929)
(0.00381757 1.5308e-20 0.0364748)
(0.00339342 -6.20367e-20 0.0352987)
(0.00313064 -5.57605e-20 0.0341091)
(0.00285135 9.78918e-20 0.0328844)
(0.00246087 -1.47146e-19 0.0315691)
(0.00193674 8.88793e-20 0.0301017)
(0.00130191 -1.28274e-19 0.0284334)
(0.000588509 1.60057e-19 0.0265311)
(-0.000177693 -2.2405e-19 0.0243725)
(-0.000971937 -3.31362e-20 0.021944)
(-0.00179071 2.01376e-19 0.019228)
(-0.00263949 -2.01265e-19 0.0162095)
(-0.00351609 -4.10607e-20 0.0128982)
(-0.00441178 -1.04691e-19 0.00920048)
(-0.00531713 1.25229e-19 0.00499896)
(-0.00620497 -1.33904e-19 0.000192247)
(-0.00704157 6.06914e-20 -0.00522063)
(-0.0076743 6.21579e-21 -0.0116558)
(-0.00776785 -7.03183e-20 -0.0185021)
(-0.00757727 3.06165e-20 -0.0271864)
(-0.00479207 -5.05643e-20 -0.0361425)
(0.000693454 8.96046e-21 -0.045493)
(0.00520436 -7.4515e-20 -0.056983)
(0.00656672 -8.68575e-20 -0.0641719)
(0.00289908 -7.85009e-20 -0.0826539)
(-0.0437121 -8.89621e-20 -0.0746585)
(-0.0388344 5.83656e-20 -0.094236)
(-0.176617 7.15302e-20 -0.100988)
(-0.229878 -2.37636e-19 -0.121547)
(-0.142381 3.32567e-20 -0.16616)
(-0.136471 -4.12852e-19 -0.165567)
(-0.0880766 -1.92285e-19 -0.184326)
(-0.0657638 -8.2862e-20 -0.183345)
(-0.0271747 3.5588e-19 -0.18274)
(-0.00916584 2.97103e-20 -0.172536)
(-0.000684196 -2.53283e-19 -0.163645)
(-0.0677077 5.90122e-24 -6.32104e-05)
(-0.0683335 4.33824e-22 -0.000185628)
(-0.0684223 1.29761e-20 -0.000307317)
(-0.0684904 2.79925e-19 -0.000421643)
(-0.0685735 4.19533e-21 -0.000531586)
(-0.0686837 -7.10045e-21 -0.000638153)
(-0.0688278 1.51763e-21 -0.000741736)
(-0.0690096 2.46915e-19 -0.00084187)
(-0.0692294 -3.13631e-19 -0.000937574)
(-0.0694855 -3.48101e-20 -0.00102753)
(-0.0697752 -3.76603e-19 -0.00111027)
(-0.0700949 3.16056e-19 -0.00118477)
(-0.07044 -3.04874e-19 -0.00125069)
(-0.0708054 -3.6243e-20 -0.00130826)
(-0.0711863 -3.43703e-19 -0.0013586)
(-0.0715793 4.06964e-19 -0.0014028)
(-0.0719806 -2.95331e-19 -0.00144129)
(-0.0723856 -2.8549e-19 -0.00147407)
(-0.0727901 5.71388e-19 -0.00150072)
(-0.0731906 -2.75064e-19 -0.00152069)
(-0.0735834 -3.68615e-19 -0.0015334)
(-0.0739644 -3.71556e-19 -0.00153819)
(-0.0743284 -1.9186e-20 -0.00153426)
(-0.0746701 -3.73738e-19 -0.00152032)
(-0.074984 -4.38845e-20 -0.00149527)
(-0.0752642 -7.04567e-19 -0.00145815)
(-0.075505 3.99142e-19 -0.00140801)
(-0.0757003 8.22491e-19 -0.00134399)
(-0.0758439 -3.88106e-19 -0.00126529)
(-0.0759296 -3.17746e-19 -0.00117123)
(-0.0759507 -3.51916e-19 -0.00106127)
(-0.0759008 -3.38967e-20 -0.00093512)
(-0.0757731 -6.40458e-19 -0.00079259)
(-0.0755622 -2.52024e-20 -0.000634555)
(-0.0752602 4.27499e-19 -0.000463716)
(-0.0748587 7.79536e-21 -0.000279289)
(-0.0743522 1.69633e-19 -7.84206e-05)
(-0.0737351 -1.722e-20 0.000137886)
(-0.0730014 -1.86125e-20 0.000369398)
(-0.0721457 4.48229e-20 0.000615753)
(-0.0711627 -5.81892e-21 0.000876161)
(-0.0700477 4.70696e-19 0.0011496)
(-0.0687963 -3.25666e-21 0.00143487)
(-0.0674048 3.69657e-20 0.00173055)
(-0.06587 -5.48035e-20 0.00203504)
(-0.0641892 -6.3662e-19 0.00234663)
(-0.0623603 5.26156e-20 0.00266351)
(-0.060382 -1.77143e-20 0.00298385)
(-0.0582531 3.30763e-19 0.00330582)
(-0.0559733 -9.4204e-21 0.00362767)
(-0.0535424 9.14184e-20 0.0039478)
(-0.0509607 3.00722e-19 0.00426488)
(-0.0482285 2.59417e-19 0.00457801)
(-0.0453459 -2.2757e-19 0.00488684)
(-0.0423125 9.77075e-21 0.00519191)
(-0.0391267 2.4282e-19 0.00549496)
(-0.0357852 -1.87121e-19 0.00579953)
(-0.032282 2.35063e-20 0.00611185)
(-0.0286075 -1.47935e-20 0.00644247)
(-0.0247463 1.92286e-19 0.0068089)
(-0.0206761 -1.38348e-21 0.0072399)
(-0.0163675 3.24625e-20 0.00778108)
(-0.0117899 -4.07541e-20 0.00849668)
(-0.00693672 1.36416e-20 0.00946213)
(-0.00189137 6.34098e-20 0.0109976)
(0.00325926 1.17342e-19 0.0137116)
(0.00780101 -1.63538e-20 0.0179835)
(0.0107415 1.45462e-20 0.0235428)
(0.0116113 -1.48937e-19 0.0293042)
(0.0108087 -2.36727e-21 0.0339371)
(0.0092592 -3.14299e-20 0.0368565)
(0.00776392 -5.32381e-20 0.038198)
(0.00663361 -6.71123e-20 0.0383642)
(0.00588936 1.03367e-19 0.0378321)
(0.00544497 9.50914e-20 0.0369479)
(0.00519304 -1.76574e-19 0.0358949)
(0.00503881 1.09195e-19 0.03475)
(0.00490992 9.624e-21 0.0335239)
(0.00476224 -1.36669e-20 0.0321917)
(0.00457804 9.48148e-20 0.0307149)
(0.00436012 -2.959e-20 0.0290575)
(0.00412158 3.2656e-20 0.0271938)
(0.00387497 -1.19408e-19 0.0251054)
(0.00363539 2.40195e-19 0.0227797)
(0.00343069 -4.72002e-20 0.0202017)
(0.00327722 -1.04025e-19 0.0173354)
(0.00318415 9.29532e-20 0.0141017)
(0.00313741 3.81966e-20 0.0104875)
(0.00322823 3.60749e-20 0.00649203)
(0.00353108 -2.38469e-20 0.00201378)
(0.00417487 1.21196e-19 -0.00298215)
(0.00524418 -1.50388e-20 -0.00887288)
(0.00706271 -7.97295e-21 -0.0152948)
(0.00949076 1.16147e-19 -0.0232647)
(0.0134338 -8.30674e-21 -0.031185)
(0.0185288 1.2368e-19 -0.0394576)
(0.0243328 4.63053e-20 -0.0492035)
(0.0293509 1.73948e-19 -0.0554961)
(0.0171427 -8.82879e-20 -0.0718767)
(-0.0221113 -1.12227e-19 -0.0701058)
(-0.03377 1.35431e-17 -0.0910386)
(-0.150729 -4.21749e-20 -0.107018)
(-0.156639 -1.69121e-19 -0.111446)
(-0.120498 -7.56602e-20 -0.150642)
(-0.109004 -1.13371e-19 -0.149386)
(-0.0818282 -9.51984e-21 -0.164498)
(-0.062343 -5.84158e-20 -0.164048)
(-0.0404831 -8.88533e-21 -0.163232)
(-0.0240055 -3.99804e-19 -0.155872)
(-0.010933 8.269e-20 -0.148859)
(-0.0675774 -4.69159e-23 -7.3727e-05)
(-0.0682056 -3.56014e-22 -0.000216914)
(-0.0682995 -3.34895e-21 -0.000360518)
(-0.0683721 -7.32321e-20 -0.000497173)
(-0.0684591 -2.99186e-19 -0.00063002)
(-0.0685729 -3.29394e-19 -0.000759071)
(-0.068721 -2.14861e-19 -0.00088391)
(-0.0689077 -3.07517e-19 -0.00100338)
(-0.0691338 4.77687e-19 -0.00111611)
(-0.0693977 -2.67997e-19 -0.00122067)
(-0.0696964 6.8584e-19 -0.00131608)
(-0.0700252 -2.48755e-19 -0.00140158)
(-0.0703774 5.82692e-19 -0.00147867)
(-0.0707486 -3.15372e-19 -0.00154845)
(-0.0711358 6.40442e-19 -0.00161148)
(-0.0715355 -2.41365e-19 -0.00166757)
(-0.0719436 7.1188e-19 -0.00171596)
(-0.0723561 6.27958e-19 -0.00175555)
(-0.072769 -2.63803e-19 -0.00178498)
(-0.0731787 7.66491e-19 -0.00180295)
(-0.0735817 7.66663e-19 -0.00180841)
(-0.0739737 5.83042e-19 -0.00180046)
(-0.0743494 2.23641e-20 -0.00177824)
(-0.0747034 -1.22001e-19 -0.00174072)
(-0.0750308 3.44102e-19 -0.00168688)
(-0.0753258 7.22376e-20 -0.00161527)
(-0.0755825 2.79227e-19 -0.00152474)
(-0.0757944 -3.50912e-19 -0.00141441)
(-0.0759555 7.41044e-19 -0.00128347)
(-0.0760591 7.70559e-19 -0.00113121)
(-0.0760988 7.68077e-19 -0.000957025)
(-0.0760677 2.92093e-20 -0.000760453)
(-0.0759586 8.3508e-20 -0.000540992)
(-0.0757641 -2.7687e-19 -0.000301698)
(-0.0754789 -3.16009e-19 -4.17527e-05)
(-0.0750963 -3.79379e-19 0.000242256)
(-0.0746098 -3.11732e-19 0.000549308)
(-0.0740123 -3.87216e-19 0.0008786)
(-0.0732976 -3.32457e-19 0.00122953)
(-0.0724597 -3.27478e-19 0.00160116)
(-0.0714933 -2.99424e-19 0.00199229)
(-0.0703933 -3.07315e-19 0.00240141)
(-0.0691553 -2.79925e-19 0.00282676)
(-0.0677753 -2.74124e-19 0.00326632)
(-0.0662499 -2.85406e-19 0.00371789)
(-0.0645764 3.10982e-19 0.00417913)
(-0.0627528 -2.406e-19 0.0046476)
(-0.0607774 -2.73425e-19 0.00512082)
(-0.0586495 -2.71972e-19 0.00559639)
(-0.0563687 -2.28924e-19 0.00607205)
(-0.0539353 -2.06982e-19 0.00654581)
(-0.0513498 -2.66655e-19 0.00701613)
(-0.0486133 -2.1798e-19 0.00748205)
(-0.0457266 -1.69583e-19 0.0079435)
(-0.0426906 -3.34834e-20 0.0084016)
(-0.0395055 -1.71883e-19 0.00885917)
(-0.0361704 -1.20462e-19 0.00932148)
(-0.0326831 -1.84607e-19 0.00979726)
(-0.0290399 -1.90388e-19 0.0103004)
(-0.0252344 -1.75126e-19 0.0108525)
(-0.0212584 -1.22352e-19 0.0114866)
(-0.0171031 -1.34247e-19 0.0122531)
(-0.0127622 -1.70961e-19 0.0132297)
(-0.00823072 -7.36149e-20 0.0145465)
(-0.00349984 -9.88742e-20 0.0164281)
(0.00119709 -1.46732e-19 0.0189647)
(0.00537667 -2.06345e-20 0.0222348)
(0.00844303 -3.14337e-21 0.0261377)
(0.00997812 9.48407e-20 0.0300583)
(0.0101461 -6.89334e-20 0.0333363)
(0.00950574 8.06383e-21 0.0356057)
(0.00855357 1.2091e-19 0.0368498)
(0.00764303 -2.47177e-20 0.0372551)
(0.00696087 -6.38507e-20 0.0370592)
(0.00653118 1.27593e-19 0.0364654)
(0.00628313 -6.04001e-20 0.0356103)
(0.00614027 -1.45451e-19 0.03457)
(0.00603893 -3.34126e-20 0.0333741)
(0.0059329 1.29928e-19 0.0320216)
(0.00579586 -8.03527e-20 0.0304971)
(0.00561872 -1.20723e-19 0.0287793)
(0.00540507 -3.81783e-20 0.0268484)
(0.00516324 1.0861e-19 0.0246878)
(0.00490507 -3.41795e-20 0.0222822)
(0.00464378 -1.41837e-19 0.0196152)
(0.00439562 8.22108e-20 0.0166674)
(0.00419394 -3.31942e-20 0.0134199)
(0.00411561 -3.15618e-20 0.00985502)
(0.00418742 -3.25805e-20 0.00594188)
(0.00446676 6.21264e-20 0.00162468)
(0.00505598 -9.34868e-20 -0.00308992)
(0.00605477 -2.43289e-20 -0.00841997)
(0.00780626 2.26938e-20 -0.0140126)
(0.0103057 -1.20155e-19 -0.0205378)
(0.0144853 7.96373e-22 -0.0268499)
(0.0195712 -1.25706e-19 -0.0338393)
(0.0257792 -6.20031e-21 -0.0415603)
(0.031101 -4.95363e-20 -0.0464164)
(0.0210906 1.04212e-19 -0.0583768)
(-0.0123054 2.43802e-19 -0.0588838)
(-0.0278989 2.68989e-19 -0.0800164)
(-0.149525 -1.39256e-19 -0.0994038)
(-0.14975 1.62088e-19 -0.0944222)
(-0.116009 -1.72532e-20 -0.122894)
(-0.103597 3.31423e-19 -0.126474)
(-0.0790448 4.29087e-20 -0.138159)
(-0.0598131 -2.0005e-20 -0.141247)
(-0.0395422 -1.70304e-19 -0.142771)
(-0.0234095 1.79335e-19 -0.141057)
(-0.0107026 2.38362e-19 -0.138872)
(-0.0674191 -7.15168e-23 -8.7756e-05)
(-0.0680486 -1.13028e-21 -0.000258764)
(-0.0681472 -2.14289e-20 -0.000431257)
(-0.0682242 -2.92243e-19 -0.00059625)
(-0.0683154 3.14122e-19 -0.000757345)
(-0.0684338 3.33915e-19 -0.000913877)
(-0.0685877 3.13421e-19 -0.00106472)
(-0.0687816 -4.89097e-21 -0.00120812)
(-0.0690165 -2.88169e-19 -0.00134257)
(-0.0692902 3.41318e-19 -0.00146705)
(-0.0695978 -2.23465e-19 -0.00158078)
(-0.0699336 -2.99397e-20 -0.00168683)
(-0.0702938 -2.82025e-19 -0.00178647)
(-0.0706731 3.25562e-19 -0.00187899)
(-0.071068 -2.63101e-19 -0.00196277)
(-0.0714762 -3.05019e-20 -0.00203612)
(-0.0718942 -2.93173e-19 -0.0020976)
(-0.0723184 -3.48055e-19 -0.00214559)
(-0.0727446 -4.34455e-19 -0.00217844)
(-0.0731691 -3.09522e-19 -0.00219455)
(-0.0735879 -3.13128e-19 -0.00219252)
(-0.0739967 -2.86807e-19 -0.00217115)
(-0.0743905 4.27012e-21 -0.00212919)
(-0.0747642 3.47506e-19 -0.00206576)
(-0.0751119 -2.98288e-19 -0.00197993)
(-0.0754277 6.7749e-19 -0.00187075)
(-0.0757064 -6.74724e-19 -0.00173703)
(-0.0759417 -4.63631e-19 -0.00157737)
(-0.0761271 -2.89137e-19 -0.00139075)
(-0.0762558 -3.53968e-19 -0.00117647)
(-0.0763211 -3.3155e-19 -0.000933944)
(-0.0763155 1.66142e-20 -0.000662771)
(-0.0762298 7.62415e-19 -0.000364349)
(-0.0760584 3.33156e-19 -4.01541e-05)
(-0.0757979 1.92752e-20 0.000313568)
(-0.075441 3.44553e-19 0.000697994)
(-0.0749801 3.53652e-19 0.00111208)
(-0.0744077 3.28036e-19 0.00155512)
(-0.0737172 3.3885e-19 0.00202612)
(-0.0729022 4.0681e-19 0.00252373)
(-0.0719571 3.45189e-19 0.00304629)
(-0.0708766 1.97578e-20 0.00359177)
(-0.0696558 3.05861e-19 0.00415787)
(-0.0682907 3.49922e-19 0.004742)
(-0.0667776 2.73581e-19 0.00534134)
(-0.0651137 3.58452e-19 0.00595291)
(-0.0632967 3.2267e-19 0.0065736)
(-0.0613253 2.80851e-19 0.00720027)
(-0.0591987 2.17299e-20 0.00782985)
(-0.0569168 2.56471e-19 0.00845945)
(-0.0544802 3.04764e-19 0.00908657)
(-0.0518902 9.36943e-21 0.00970925)
(-0.0491485 -2.86501e-20 0.0103263)
(-0.046257 4.06586e-19 0.0109374)
(-0.0432183 6.43753e-20 0.0115439)
(-0.0400345 8.86133e-21 0.0121489)
(-0.0367079 3.96456e-19 0.0127583)
(-0.0332407 2.15957e-19 0.0133816)
(-0.029635 1.79448e-19 0.0140336)
(-0.0258934 1.62309e-20 0.0147358)
(-0.0220203 1.57449e-19 0.0155195)
(-0.0180252 1.53488e-19 0.0164288)
(-0.0139289 8.60455e-20 0.017524)
(-0.00977599 1.92035e-19 0.0188824)
(-0.00566922 1.79312e-19 0.0205838)
(-0.00183088 -4.33607e-20 0.0227428)
(0.00158347 -6.70305e-20 0.0253802)
(0.00423974 4.78142e-21 0.0282924)
(0.00594738 1.38759e-20 0.031154)
(0.00679717 9.98565e-20 0.033616)
(0.00706154 -7.17164e-21 0.0354312)
(0.00703088 -1.72141e-19 0.0365361)
(0.0069286 -1.47606e-20 0.0369874)
(0.00687223 7.03376e-20 0.0369055)
(0.0068869 -7.64966e-20 0.0364306)
(0.00696519 -4.56673e-20 0.0356629)
(0.00708503 1.54092e-19 0.0346621)
(0.00721681 4.61448e-20 0.0334676)
(0.00733804 -1.54407e-19 0.0320945)
(0.00743928 -8.58062e-21 0.0305431)
(0.00752406 1.04216e-19 0.0288057)
(0.00760364 4.94126e-20 0.0268718)
(0.00769372 -1.25868e-19 0.0247318)
(0.00781546 -5.98007e-20 0.0223756)
(0.00799555 1.36129e-19 0.0197923)
(0.00826487 -1.10816e-19 0.0169704)
(0.0086604 -7.33353e-20 0.0138933)
(0.00922203 2.30084e-21 0.0105406)
(0.00999295 6.98622e-20 0.00688784)
(0.0110356 -8.13532e-20 0.00290044)
(0.012448 1.32674e-20 -0.00140704)
(0.0142904 1.25763e-20 -0.00619302)
(0.0168421 -7.03186e-20 -0.0111861)
(0.0199491 5.66396e-21 -0.0168083)
(0.0244558 -7.24495e-20 -0.0221773)
(0.0293899 1.26211e-20 -0.028082)
(0.0357651 -6.83081e-20 -0.0341042)
(0.0404006 -5.90652e-20 -0.0382268)
(0.0330345 -1.48422e-19 -0.0468409)
(0.00408255 -1.32287e-20 -0.0497499)
(-0.0150515 4.61802e-20 -0.0713996)
(-0.138153 8.01844e-20 -0.087736)
(-0.126687 -1.58894e-19 -0.0834093)
(-0.102532 1.71157e-19 -0.105771)
(-0.0904426 4.97345e-20 -0.110565)
(-0.0725949 -1.34969e-19 -0.11989)
(-0.05652 -1.27429e-19 -0.123608)
(-0.0403463 3.04449e-19 -0.125816)
(-0.0258265 6.74385e-20 -0.1258)
(-0.0127854 -2.44738e-19 -0.125053)
(-0.0672312 -4.18008e-23 -0.000103345)
(-0.0678608 -4.74874e-22 -0.000305539)
(-0.0679635 -7.40497e-21 -0.000510839)
(-0.068045 2.09817e-20 -0.000708147)
(-0.0681411 2.29525e-20 -0.000901297)
(-0.0682654 2.01402e-20 -0.00108885)
(-0.068427 7.73971e-21 -0.00126888)
(-0.0686304 3.49304e-20 -0.00143914)
(-0.068876 1.33419e-19 -0.00159835)
(-0.0691593 9.4349e-21 -0.0017455)
(-0.0694746 -5.33096e-20 -0.00188485)
(-0.0698184 -8.5568e-21 -0.00201848)
(-0.0701861 -3.88675e-20 -0.00214327)
(-0.0705746 1.06308e-20 -0.00225716)
(-0.0709809 -1.4283e-20 -0.00235846)
(-0.0714023 4.87856e-20 -0.00244555)
(-0.0718352 2.63209e-20 -0.00251688)
(-0.0722759 -3.32534e-20 -0.00257077)
(-0.0727202 3.4326e-20 -0.00260545)
(-0.0731645 -6.75268e-21 -0.00261914)
(-0.0736045 1.88631e-20 -0.00261019)
(-0.0740359 3.16819e-20 -0.00257708)
(-0.0744535 2.48011e-20 -0.00251821)
(-0.0748521 -4.42932e-20 -0.00243196)
(-0.075226 -1.23736e-20 -0.00231671)
(-0.0755697 -6.75873e-20 -0.00217143)
(-0.0758769 5.72607e-20 -0.00199527)
(-0.0761412 1.99866e-20 -0.00178733)
(-0.0763566 -5.28433e-20 -0.00154644)
(-0.0765159 1.31072e-20 -0.00127168)
(-0.0766114 1.09968e-20 -0.000962666)
(-0.0766352 8.72046e-21 -0.00062067)
(-0.0765802 -9.8932e-20 -0.000244931)
(-0.0764418 4.83457e-21 0.000167823)
(-0.076215 8.34063e-20 0.000618561)
(-0.0758917 7.30943e-21 0.00110615)
(-0.0754635 4.69954e-20 0.0016298)
(-0.0749228 -3.29207e-20 0.00218867)
(-0.0742627 1.23706e-20 0.00278158)
(-0.0734764 9.78258e-20 0.00340694)
(-0.0725579 9.98426e-21 0.00406272)
(-0.0715016 1.11822e-20 0.00474648)
(-0.0703022 2.04398e-20 0.0054554)
(-0.0689555 4.02126e-20 0.00618631)
(-0.0674575 4.69225e-21 0.00693577)
(-0.0658053 4.37012e-20 0.0077001)
(-0.0639966 7.45693e-21 0.00847547)
(-0.0620299 1.6928e-20 0.00925799)
(-0.0599047 3.20732e-20 0.0100438)
(-0.057621 1.19026e-20 0.0108293)
(-0.0551802 7.31402e-20 0.0116112)
(-0.0525839 2.86578e-20 0.012387)
(-0.0498349 -2.58527e-20 0.0131547)
(-0.0469364 6.57246e-21 0.0139136)
(-0.0438925 1.90132e-20 0.0146645)
(-0.0407077 -2.38588e-20 0.0154103)
(-0.0373875 1.93361e-20 0.0161564)
(-0.0339381 1.89284e-20 0.0169116)
(-0.0303671 9.5156e-21 0.0176895)
(-0.0266844 7.89345e-21 0.0185091)
(-0.0229041 9.63641e-21 0.0193965)
(-0.0190472 1.50394e-20 0.0203859)
(-0.0151474 -8.27307e-20 0.02152)
(-0.0112589 6.90615e-20 0.0228469)
(-0.00746555 9.19736e-20 0.0244133)
(-0.00388177 3.63778e-21 0.0262543)
(-0.00070523 -8.0422e-20 0.0283401)
(0.00189567 7.61762e-20 0.0305298)
(0.00385408 2.09841e-21 0.0326374)
(0.00518503 5.1007e-20 0.0344671)
(0.00603139 -6.25368e-20 0.0358537)
(0.00657222 -9.86937e-20 0.0367262)
(0.00695629 -1.02117e-19 0.0370899)
(0.0072704 1.76015e-19 0.0370078)
(0.00756935 1.75035e-19 0.0365656)
(0.00788085 -3.21996e-19 0.0358295)
(0.00819791 1.15035e-19 0.0348499)
(0.00850797 7.24782e-20 0.0336617)
(0.00880342 -6.61742e-20 0.0322831)
(0.00908471 5.56203e-20 0.03072)
(0.00935706 -4.1473e-20 0.0289705)
(0.00962703 3.69079e-20 0.027031)
(0.00990485 -1.15254e-19 0.0248987)
(0.0102071 1.76604e-19 0.0225701)
(0.0105549 -3.76914e-20 0.0200388)
(0.0109747 -1.08613e-19 0.0172974)
(0.0115005 -4.00724e-21 0.0143361)
(0.0121755 3.84619e-20 0.0111454)
(0.0130535 2.99882e-20 0.00771667)
(0.0142035 -2.73816e-20 0.00404029)
(0.0157202 5.61644e-21 0.000137968)
(0.0176736 -2.06179e-20 -0.00406213)
(0.020319 -1.76675e-20 -0.00838639)
(0.0235052 -1.05066e-20 -0.0130119)
(0.0280769 -2.24616e-20 -0.0174648)
(0.0328692 -1.463e-20 -0.0221295)
(0.0394477 1.51714e-20 -0.0265956)
(0.0435827 -3.84167e-21 -0.0300758)
(0.0391012 -4.87435e-20 -0.0351514)
(0.0175666 -1.48233e-19 -0.0388066)
(-0.00487381 7.48052e-18 -0.058915)
(-0.132834 -1.25212e-19 -0.0741086)
(-0.116248 -6.43381e-20 -0.0720238)
(-0.0948909 7.88816e-20 -0.0889189)
(-0.0828115 1.00763e-19 -0.0950215)
(-0.0673111 -5.20118e-20 -0.102902)
(-0.0526351 8.94378e-21 -0.107244)
(-0.0381256 6.40704e-20 -0.110271)
(-0.0246409 -3.4074e-19 -0.111612)
(-0.0122717 5.45212e-20 -0.11213)
(-0.067011 -3.14381e-23 -0.000120211)
(-0.0676397 -3.40305e-22 -0.000355939)
(-0.067746 -6.27047e-21 -0.000596434)
(-0.067832 -8.52316e-21 -0.000828468)
(-0.0679336 1.77408e-20 -0.00105604)
(-0.0680655 4.98258e-21 -0.00127672)
(-0.0682373 -5.88576e-21 -0.00148756)
(-0.0684531 2.11179e-20 -0.00168583)
(-0.0687098 3.20215e-19 -0.00186989)
(-0.0690015 -1.01377e-19 -0.00204489)
(-0.0693247 2.42714e-19 -0.00221444)
(-0.0696773 3.55668e-20 -0.00237373)
(-0.0700562 3.56126e-19 -0.00252084)
(-0.070458 -7.61359e-20 -0.0026542)
(-0.0708795 2.78819e-19 -0.00277188)
(-0.0713176 2.90508e-20 -0.00287213)
(-0.0717689 3.69411e-19 -0.00295321)
(-0.0722298 2.95593e-19 -0.00301324)
(-0.0726962 -2.95288e-19 -0.00305025)
(-0.0731644 3.68726e-19 -0.00306225)
(-0.0736301 3.50446e-19 -0.00304733)
(-0.0740888 3.03148e-19 -0.00300367)
(-0.0745355 2.31054e-20 -0.00292942)
(-0.0749648 1.93033e-19 -0.00282273)
(-0.075371 6.36026e-20 -0.00268176)
(-0.0757481 1.93302e-19 -0.00250475)
(-0.0760898 1.97627e-19 -0.00229014)
(-0.0763898 -2.8472e-19 -0.002037)
(-0.0766414 3.36795e-19 -0.00174454)
(-0.0768372 4.00302e-19 -0.00141205)
(-0.0769696 3.76819e-19 -0.00103872)
(-0.0770311 1.39976e-20 -0.000623535)
(-0.0770168 1.31595e-19 -0.000165201)
(-0.0769205 -6.22766e-20 0.000337713)
(-0.0767347 6.34787e-20 0.000885224)
(-0.0764513 -1.27548e-19 0.00147648)
(-0.0760621 5.73315e-20 0.00211071)
(-0.0755593 -3.86324e-19 0.00278689)
(-0.0749355 -6.75634e-20 0.00350363)
(-0.0741835 8.17353e-20 0.00425902)
(-0.0732969 -1.68241e-20 0.00505065)
(-0.0722695 9.54692e-20 0.00587564)
(-0.0710958 3.27966e-20 0.00673061)
(-0.0697712 9.1778e-20 0.0076118)
(-0.0682913 -7.14411e-20 0.00851507)
(-0.0666531 2.54101e-19 0.00943596)
(-0.0648541 1.50375e-19 0.0103698)
(-0.0628928 1.25385e-20 0.011312)
(-0.0607687 1.07062e-19 0.0122576)
(-0.0584824 1.65992e-20 0.0132022)
(-0.0560354 1.61623e-19 0.0141416)
(-0.0534303 1.19119e-19 0.0150722)
(-0.0506706 5.43268e-20 0.0159912)
(-0.0477611 -4.7269e-20 0.0168971)
(-0.0447073 -1.38811e-19 0.0177897)
(-0.0415162 5.26948e-20 0.0186708)
(-0.038196 7.03397e-21 0.0195447)
(-0.0347566 7.49698e-20 0.0204187)
(-0.0312102 6.33277e-21 0.0213035)
(-0.027572 7.23276e-20 0.0222142)
(-0.0238623 1.51108e-20 0.0231707)
(-0.020109 5.58864e-20 0.0241973)
(-0.0163505 -2.0489e-19 0.0253213)
(-0.0126408 6.06765e-20 0.0265696)
(-0.00905321 1.34301e-19 0.0279616)
(-0.00568296 -2.88121e-20 0.0294984)
(-0.00264761 -9.37723e-20 0.0311474)
(-4.32273e-05 -1.10019e-19 0.0328361)
(0.00209519 3.99584e-20 0.0344202)
(0.00377199 1.15516e-19 0.0357609)
(0.00505825 -3.28187e-22 0.0367707)
(0.00605819 -1.61193e-19 0.0373925)
(0.00686771 -1.70362e-20 0.0376148)
(0.00755321 1.57205e-19 0.0374657)
(0.00816791 -1.80142e-19 0.0369939)
(0.008742 -5.78085e-20 0.0362436)
(0.00928384 2.12969e-19 0.035254)
(0.00979481 -5.72188e-21 0.0340534)
(0.0102792 -1.17368e-19 0.0326593)
(0.0107459 -5.37619e-20 0.0310799)
(0.0112034 1.53373e-19 0.0293191)
(0.0116582 1.10479e-20 0.0273798)
(0.0121209 -1.11199e-19 0.0252641)
(0.0126096 -4.72932e-20 0.022973)
(0.013148 1.08692e-19 0.0205065)
(0.0137658 -9.21931e-20 0.0178638)
(0.0144998 -7.98024e-20 0.0150435)
(0.0153958 6.93803e-20 0.0120453)
(0.0165081 1.70735e-20 0.00887119)
(0.0179013 -5.02686e-20 0.0055254)
(0.019654 -7.74555e-20 0.00202849)
(0.0218344 1.72351e-20 -0.00162131)
(0.0246371 -2.32197e-20 -0.00537301)
(0.0278792 -8.4416e-20 -0.00913569)
(0.0323963 -3.18344e-20 -0.0128962)
(0.0368815 -9.39612e-20 -0.0163895)
(0.0432536 -2.7691e-20 -0.0197947)
(0.0464039 -1.74848e-19 -0.0223224)
(0.0444282 -1.27208e-19 -0.0247891)
(0.0313646 1.39483e-19 -0.0288391)
(0.00637091 1.58131e-19 -0.0495832)
(-0.125094 -1.98992e-19 -0.0612201)
(-0.104559 1.17462e-19 -0.062345)
(-0.0859361 2.4096e-19 -0.0748123)
(-0.0747407 6.06028e-20 -0.0816769)
(-0.0615902 -2.66155e-19 -0.0885067)
(-0.0487241 -6.44477e-20 -0.0928256)
(-0.035899 2.21261e-19 -0.0961854)
(-0.023583 8.60451e-20 -0.0981003)
(-0.0118467 -2.37734e-19 -0.0992348)
(-0.0667563 -1.74291e-23 -0.000138118)
(-0.0673832 -1.72766e-22 -0.000409262)
(-0.0674928 -3.89427e-21 -0.000686709)
(-0.0675834 2.83498e-20 -0.00095509)
(-0.0676915 1.40286e-20 -0.00121858)
(-0.0678332 3.06512e-21 -0.00147347)
(-0.0680188 -1.14412e-20 -0.0017154)
(-0.0682482 -8.39596e-21 -0.00194039)
(-0.0685149 -3.68756e-19 -0.00215371)
(-0.0688146 -3.78085e-19 -0.00236201)
(-0.0691475 -3.47992e-19 -0.00255983)
(-0.0695122 1.44053e-19 -0.00274438)
(-0.0699054 -2.54858e-19 -0.00291453)
(-0.0703233 -3.38648e-19 -0.00306824)
(-0.0707629 -3.34343e-19 -0.0032035)
(-0.0712208 1.27933e-20 -0.00331836)
(-0.071694 -3.9945e-19 -0.00341078)
(-0.0721787 -3.136e-19 -0.00347866)
(-0.0726711 -3.30424e-20 -0.00351979)
(-0.0731673 -3.47989e-19 -0.00353193)
(-0.0736631 -3.9241e-19 -0.0035129)
(-0.0741538 -3.29523e-19 -0.00346056)
(-0.0746345 -2.76809e-20 -0.00337279)
(-0.0750998 -3.88908e-19 -0.00324748)
(-0.0755439 2.62842e-20 -0.00308259)
(-0.0759608 -3.68988e-19 -0.00287612)
(-0.0763439 8.44115e-19 -0.00262619)
(-0.0766865 1.85566e-19 -0.00233113)
(-0.0769816 -4.00809e-19 -0.00198957)
(-0.077222 -4.25519e-19 -0.00160032)
(-0.0774006 -4.72126e-19 -0.00116214)
(-0.07751 -6.29381e-20 -0.000673498)
(-0.0775437 -5.33041e-19 -0.000133204)
(-0.077495 -2.10925e-20 0.000459399)
(-0.0773563 7.63517e-19 0.001104)
(-0.0771194 4.78002e-20 0.00179987)
(-0.0767759 6.80555e-19 0.00254616)
(-0.0763176 -3.51424e-20 0.00334168)
(-0.0757365 4.64555e-21 0.00418473)
(-0.075025 6.76068e-19 0.00507307)
(-0.074176 4.58427e-20 0.00600391)
(-0.0731828 7.06336e-19 0.00697385)
(-0.0720395 4.41954e-20 0.00797898)
(-0.0707409 6.02268e-19 0.00901484)
(-0.0692824 -2.19639e-20 0.0100765)
(-0.0676606 -2.72733e-19 0.0111588)
(-0.0658728 5.66646e-19 0.012256)
(-0.0639175 4.38995e-20 0.0133624)
(-0.0617942 5.8097e-19 0.0144724)
(-0.0595037 5.03537e-20 0.0155801)
(-0.0570481 5.84053e-19 0.0166804)
(-0.0544306 5.90056e-19 0.0177685)
(-0.0516557 5.07704e-19 0.0188403)
(-0.0487294 7.92489e-20 0.0198931)
(-0.045659 1.43145e-19 0.0209254)
(-0.0424534 3.04319e-19 0.0219377)
(-0.0391234 9.5172e-21 0.0229324)
(-0.0356819 3.70513e-19 0.0239143)
(-0.0321444 4.15866e-20 0.0248912)
(-0.02853 3.66863e-19 0.0258738)
(-0.0248627 5.70603e-20 0.0268757)
(-0.0211733 3.68802e-19 0.0279127)
(-0.0175008 -6.43421e-20 0.0290007)
(-0.0138947 -8.19855e-21 0.0301528)
(-0.0104159 3.08021e-19 0.0313742)
(-0.00713461 2.46374e-19 0.0326558)
(-0.00412527 -7.12913e-20 0.0339667)
(-0.00145263 -2.8951e-20 0.0352501)
(0.000839793 -5.93534e-20 0.0364184)
(0.00277862 1.08351e-19 0.0373825)
(0.00439634 -2.69521e-20 0.0380773)
(0.00575364 -2.5301e-19 0.0384618)
(0.00691103 -4.94283e-20 0.0385241)
(0.00791849 2.52364e-19 0.0382737)
(0.00881824 1.87203e-20 0.037733)
(0.00964031 -2.16257e-19 0.0369327)
(0.0104006 2.59258e-19 0.0359025)
(0.0111098 3.36311e-20 0.0346656)
(0.0117806 -1.39031e-19 0.0332378)
(0.0124265 7.60229e-20 0.0316302)
(0.0130572 1.17957e-19 0.0298515)
(0.0136806 1.66288e-20 0.0279095)
(0.0143088 -2.12711e-19 0.0258102)
(0.0149604 2.36246e-19 0.0235583)
(0.0156599 4.58252e-20 0.0211586)
(0.016437 -1.49981e-19 0.018616)
(0.0173276 8.29583e-20 0.0159361)
(0.0183748 1.33185e-19 0.0131268)
(0.0196293 2.35961e-20 0.0101985)
(0.0211499 -3.87153e-20 0.00716633)
(0.0230039 1.08561e-19 0.0040547)
(0.02526 -5.26901e-21 0.000911036)
(0.0280737 6.44528e-21 -0.00234198)
(0.0312374 9.95585e-20 -0.00529344)
(0.0356426 6.79072e-21 -0.00848086)
(0.039759 1.01259e-19 -0.0108399)
(0.0458398 3.39762e-20 -0.0135423)
(0.0480907 1.20929e-19 -0.0148677)
(0.048135 -6.80796e-20 -0.0158055)
(0.0455417 -8.39876e-20 -0.0195764)
(0.0169254 3.0914e-18 -0.0414289)
(-0.118403 -2.45051e-19 -0.0489339)
(-0.0953928 4.45051e-20 -0.0534944)
(-0.0782793 1.27441e-19 -0.0620954)
(-0.0680317 -1.28626e-20 -0.0694803)
(-0.0561982 -1.98479e-19 -0.075576)
(-0.0446694 -1.73793e-20 -0.0798193)
(-0.0331022 2.90573e-19 -0.0833555)
(-0.021854 -2.59572e-19 -0.0855668)
(-0.0109944 -1.45405e-19 -0.0870291)
(-0.0664653 -1.95428e-23 -0.000156911)
(-0.0670896 1.50271e-22 -0.000465098)
(-0.0672024 6.10035e-21 -0.000780957)
(-0.0672979 3.1777e-19 -0.00108694)
(-0.0674139 -6.91322e-21 -0.00138758)
(-0.0675689 -1.09005e-20 -0.00167706)
(-0.0677705 -2.94882e-20 -0.00194814)
(-0.068013 1.34109e-20 -0.0022034)
(-0.0682875 2.77222e-19 -0.00245357)
(-0.0685971 1.09934e-20 -0.00269424)
(-0.0689427 2.9407e-19 -0.00292073)
(-0.0693223 5.08778e-20 -0.00313237)
(-0.0697322 3.00346e-19 -0.00332713)
(-0.0701689 -5.49356e-20 -0.00350296)
(-0.0706292 2.62806e-19 -0.0036577)
(-0.0711102 5.47532e-20 -0.00378912)
(-0.0716085 3.05912e-19 -0.00389494)
(-0.0721206 2.9774e-19 -0.00397278)
(-0.0726429 3.92036e-19 -0.0040202)
(-0.0731712 3.5351e-19 -0.00403467)
(-0.0737014 3.25783e-19 -0.00401374)
(-0.0742289 2.84142e-19 -0.00395494)
(-0.0747486 -3.62038e-19 -0.00385582)
(-0.0752552 -4.41581e-19 -0.00371398)
(-0.0757427 7.52397e-19 -0.00352701)
(-0.0762051 -7.35032e-19 -0.00329262)
(-0.0766357 1.14307e-18 -0.00300857)
(-0.0770276 4.92255e-19 -0.00267276)
(-0.0773736 2.83157e-19 -0.00228322)
(-0.0776665 3.05308e-19 -0.00183815)
(-0.0778989 3.18398e-19 -0.00133585)
(-0.0780634 -3.80207e-19 -0.000774799)
(-0.0781531 -9.30427e-19 -0.000154008)