/*--------------------------------*- C++ -*----------------------------------*\
| =========                 |                                                 |
| \\      /  F ield         | OpenFOAM: The Open Source CFD Toolbox           |
|  \\    /   O peration     | Version:  v2106                                 |
|   \\  /    A nd           | Website:  www.openfoam.com                      |
|    \\/     M anipulation  |                                                 |
\*---------------------------------------------------------------------------*/
FoamFile
{
    version     2.0;
    format      ascii;
    arch        "LSB;label=32;scalar=64";
    class       volScalarField;
    location    "1.4";
    object      k;
}
// * * * * * * * * * * * * * * * * * * * * * * * * * * * * * * * * * * * * * //

dimensions      [0 2 -2 0 0 0 0];

internalField   nonuniform List<scalar> 
29678
(
0.000123232
0.000180605
0.000199188
0.000205949
0.000209
0.000210621
0.000211583
0.000212201
0.000212624
0.000212931
0.000213168
0.000213362
0.000213531
0.000213684
0.000213827
0.000213962
0.00021409
0.00021421
0.000214323
0.000214429
0.000214528
0.000214619
0.000214705
0.000214787
0.000214867
0.000214948
0.000215031
0.000215117
0.000215204
0.000215293
0.000215385
0.000215483
0.000215587
0.000215699
0.000215819
0.000215948
0.000216088
0.00021624
0.000216403
0.000216578
0.000216765
0.000216966
0.00021718
0.000217408
0.00021765
0.000217908
0.000218165
0.000218414
0.000218653
0.000218881
0.000219099
0.0002193
0.000219465
0.000219605
0.000219753
0.000219918
0.000220081
0.000220158
0.000220146
0.000220095
0.000220035
0.000219983
0.000219941
0.000219908
0.000219881
0.000219856
0.000219824
0.00021977
0.000219686
0.000219565
0.0002194
0.000219179
0.000218908
0.000218598
0.000218302
0.000218135
0.000218187
0.000218364
0.000218586
0.000218829
0.000219109
0.000219439
0.00021982
0.000220206
0.000220613
0.000221055
0.00022154
0.000222073
0.000222653
0.000223289
0.000223991
0.000224718
0.000225424
0.000226386
0.000228452
0.000233935
0.000250789
0.000288539
0.000336875
0.000350436
0.000360336
0.000320786
0.00029629
0.000278841
0.000264099
0.000251543
0.000240439
0.000231449
0.000224545
0.000220042
0.000123226
0.000180644
0.000199233
0.000206006
0.000209072
0.000210708
0.000211685
0.000212317
0.000212752
0.000213069
0.000213314
0.000213516
0.00021369
0.000213847
0.000213993
0.00021413
0.00021426
0.000214381
0.000214495
0.000214601
0.0002147
0.000214793
0.000214881
0.000214967
0.000215055
0.000215146
0.000215237
0.000215331
0.000215428
0.000215532
0.000215641
0.000215759
0.000215886
0.000216023
0.000216172
0.000216333
0.000216508
0.000216698
0.000216902
0.000217122
0.000217358
0.000217611
0.000217882
0.000218158
0.000218429
0.000218695
0.000218955
0.000219208
0.000219455
0.000219695
0.000219926
0.000220149
0.000220362
0.000220562
0.000220753
0.000220936
0.000221087
0.000221132
0.000221109
0.000221054
0.000220992
0.000220934
0.000220882
0.000220834
0.000220787
0.000220739
0.000220675
0.000220584
0.000220453
0.000220268
0.000220017
0.000219691
0.000219293
0.000218846
0.000218409
0.000218079
0.00021792
0.000217915
0.000218019
0.000218203
0.000218456
0.00021872
0.000219003
0.000219343
0.000219758
0.000220257
0.000220842
0.000221519
0.000222287
0.000223141
0.000224087
0.000225095
0.000226152
0.000227417
0.000229408
0.000234275
0.000249309
0.000283782
0.000326728
0.000336957
0.000347371
0.000317194
0.000296511
0.000280062
0.000265684
0.000252719
0.000241188
0.000231975
0.000224857
0.000219715
0.000123233
0.000180695
0.000199291
0.000206083
0.000209171
0.000210827
0.000211823
0.00021247
0.000212919
0.000213247
0.000213501
0.000213709
0.000213889
0.000214051
0.000214201
0.000214341
0.000214473
0.000214596
0.00021471
0.000214817
0.000214917
0.00021501
0.000215099
0.000215187
0.000215277
0.000215371
0.000215467
0.000215565
0.000215669
0.000215778
0.000215894
0.000216018
0.000216151
0.000216295
0.000216451
0.00021662
0.000216802
0.000216999
0.000217211
0.000217439
0.000217683
0.000217943
0.00021822
0.000218498
0.000218772
0.000219039
0.000219301
0.000219557
0.000219805
0.000220047
0.00022028
0.000220506
0.000220722
0.000220929
0.000221124
0.000221306
0.00022147
0.000221553
0.000221548
0.000221471
0.000221343
0.0002212
0.000221064
0.00022094
0.000220824
0.000220711
0.000220595
0.000220469
0.000220322
0.000220139
0.00021991
0.000219624
0.000219282
0.000218896
0.000218516
0.000218215
0.000218036
0.000217979
0.000218021
0.000218148
0.000218355
0.000218643
0.000218966
0.000219343
0.000219794
0.000220334
0.000220966
0.000221699
0.000222526
0.000223431
0.00022442
0.000225473
0.000226635
0.00022792
0.000229822
0.00023387
0.000245733
0.000274609
0.000316327
0.000335682
0.000336137
0.000312946
0.000295812
0.000281089
0.000267871
0.000255301
0.000243334
0.00023332
0.000225552
0.00021999
0.000123236
0.000180754
0.000199364
0.000206179
0.000209292
0.000210969
0.000211981
0.000212641
0.000213096
0.000213429
0.000213685
0.000213895
0.000214075
0.000214238
0.000214388
0.000214529
0.000214662
0.000214786
0.000214901
0.00021501
0.000215112
0.000215208
0.000215301
0.000215394
0.00021549
0.000215587
0.000215686
0.000215788
0.000215895
0.000216007
0.000216126
0.000216254
0.00021639
0.000216538
0.000216696
0.000216868
0.000217053
0.000217252
0.000217466
0.000217695
0.00021794
0.0002182
0.000218476
0.000218755
0.000219029
0.000219297
0.000219559
0.000219814
0.000220062
0.000220302
0.000220534
0.000220756
0.00022097
0.000221173
0.000221364
0.000221543
0.000221683
0.000221716
0.000221651
0.000221507
0.000221324
0.000221181
0.000221062
0.000220961
0.000220871
0.000220783
0.000220688
0.000220574
0.00022043
0.000220246
0.000220014
0.000219733
0.000219415
0.000219085
0.000218779
0.00021854
0.000218399
0.000218361
0.000218421
0.000218573
0.000218814
0.000219126
0.000219462
0.000219848
0.000220306
0.000220846
0.000221473
0.000222193
0.000223011
0.000223916
0.000224913
0.000225994
0.000227184
0.000228505
0.000230298
0.000233728
0.000243351
0.000267324
0.000306309
0.000326487
0.000325947
0.000308448
0.000293313
0.000279795
0.000268299
0.000256865
0.000245353
0.000235196
0.000226931
0.000220647
0.00012323
0.000180819
0.000199449
0.000206293
0.000209432
0.000211129
0.000212152
0.000212816
0.000213272
0.000213602
0.000213854
0.00021406
0.000214237
0.000214397
0.000214545
0.000214685
0.000214816
0.000214941
0.000215058
0.00021517
0.000215276
0.000215379
0.000215479
0.00021558
0.000215682
0.000215784
0.000215887
0.000215993
0.000216105
0.000216221
0.000216345
0.000216478
0.00021662
0.000216772
0.000216936
0.000217112
0.000217302
0.000217505
0.000217723
0.000217956
0.000218204
0.000218466
0.000218743
0.000219024
0.0002193
0.000219569
0.000219831
0.000220087
0.000220335
0.000220575
0.000220806
0.000221028
0.00022124
0.000221441
0.00022163
0.00022177
0.000221825
0.000221805
0.000221718
0.000221577
0.00022142
0.000221287
0.00022117
0.000221064
0.000220961
0.000220855
0.000220739
0.000220606
0.000220448
0.000220257
0.000220035
0.000219787
0.000219523
0.00021926
0.000219019
0.000218826
0.000218701
0.000218659
0.000218704
0.000218837
0.000219056
0.000219359
0.000219737
0.000220162
0.000220648
0.000221209
0.000221848
0.00022257
0.000223386
0.00022429
0.000225289
0.000226385
0.000227595
0.000228962
0.000230654
0.000233622
0.000241082
0.000258935
0.000294413
0.000316407
0.000316326
0.000303799
0.000289829
0.000277244
0.00026757
0.000257639
0.000246852
0.000236728
0.000228054
0.000221195
0.000123214
0.000180889
0.000199545
0.000206423
0.000209589
0.000211303
0.000212333
0.000212996
0.000213446
0.000213769
0.000214013
0.000214212
0.000214383
0.000214539
0.000214684
0.000214822
0.000214954
0.00021508
0.0002152
0.000215316
0.000215428
0.000215538
0.000215646
0.000215753
0.000215859
0.000215965
0.000216074
0.000216186
0.000216303
0.000216427
0.000216558
0.000216697
0.000216846
0.000217005
0.000217176
0.00021736
0.000217557
0.000217767
0.000217991
0.00021823
0.000218482
0.000218749
0.00021903
0.000219314
0.000219592
0.000219863
0.000220127
0.000220384
0.000220634
0.000220875
0.000221107
0.000221329
0.000221541
0.000221741
0.000221929
0.000222087
0.000222171
0.000222182
0.000222127
0.000222016
0.000221875
0.000221732
0.000221599
0.000221474
0.000221353
0.000221229
0.000221095
0.000220942
0.000220766
0.000220568
0.000220352
0.000220122
0.000219885
0.000219655
0.000219451
0.000219293
0.000219197
0.000219178
0.000219244
0.000219397
0.000219632
0.000219941
0.000220288
0.000220689
0.000221155
0.000221696
0.000222318
0.000223025
0.00022383
0.000224732
0.000225736
0.00022685
0.000228071
0.000229468
0.000231042
0.000233697
0.000239658
0.000253163
0.000283705
0.000307909
0.000308309
0.000298974
0.000285556
0.000273242
0.000265347
0.000257199
0.000247613
0.000237997
0.00022919
0.000221824
0.000123187
0.000180964
0.000199654
0.00020657
0.000209764
0.000211492
0.000212524
0.000213182
0.000213624
0.000213936
0.000214171
0.000214362
0.000214527
0.000214679
0.000214822
0.000214959
0.000215091
0.000215219
0.000215343
0.000215464
0.000215581
0.000215697
0.000215809
0.000215919
0.00021603
0.000216143
0.00021626
0.00021638
0.000216505
0.000216637
0.000216777
0.000216925
0.000217082
0.000217251
0.000217431
0.000217623
0.000217828
0.000218047
0.000218279
0.000218525
0.000218785
0.000219058
0.000219343
0.000219632
0.000219913
0.000220188
0.000220455
0.000220715
0.000220966
0.000221209
0.000221442
0.000221665
0.000221878
0.000222078
0.000222263
0.000222394
0.000222461
0.00022247
0.000222428
0.000222349
0.000222248
0.000222138
0.000222026
0.000221913
0.000221795
0.000221667
0.000221521
0.000221353
0.000221169
0.000220972
0.000220764
0.000220547
0.00022033
0.000220124
0.000219941
0.000219799
0.000219713
0.000219696
0.00021976
0.000219902
0.000220117
0.000220403
0.00022076
0.000221167
0.000221633
0.00022217
0.000222785
0.000223485
0.000224279
0.00022518
0.000226188
0.000227321
0.000228542
0.000229969
0.000231427
0.00023388
0.000238618
0.000249031
0.000274503
0.000300647
0.000301359
0.000294002
0.000280838
0.00026814
0.000261859
0.0002556
0.000247518
0.000238802
0.000230156
0.000222446
0.000123149
0.000181044
0.000199775
0.000206732
0.000209954
0.000211692
0.000212724
0.000213376
0.000213808
0.00021411
0.000214335
0.000214517
0.000214677
0.000214824
0.000214965
0.000215102
0.000215235
0.000215365
0.000215492
0.000215615
0.000215736
0.000215855
0.000215973
0.000216091
0.00021621
0.000216332
0.000216457
0.000216586
0.00021672
0.000216862
0.000217011
0.000217169
0.000217337
0.000217516
0.000217706
0.000217909
0.000218124
0.000218353
0.000218595
0.00021885
0.000219119
0.000219399
0.000219691
0.000219985
0.000220271
0.00022055
0.000220821
0.000221085
0.000221339
0.000221585
0.00022182
0.000222045
0.000222258
0.00022246
0.000222642
0.000222774
0.000222852
0.000222879
0.000222862
0.00022281
0.000222733
0.000222641
0.00022254
0.00022243
0.000222312
0.00022218
0.000222028
0.00022186
0.000221678
0.000221487
0.000221283
0.000221074
0.000220867
0.000220672
0.000220502
0.000220371
0.000220293
0.000220283
0.000220348
0.000220485
0.000220689
0.000220959
0.000221296
0.000221686
0.00022214
0.000222665
0.000223268
0.000223957
0.000224741
0.000225635
0.000226641
0.000227793
0.000228992
0.000230451
0.000231773
0.000234074
0.000237682
0.000246223
0.000268908
0.000295173
0.000295822
0.000289136
0.000276165
0.000262379
0.000257396
0.000252891
0.000246481
0.000239035
0.000230919
0.000223073
0.000123099
0.000181128
0.000199908
0.000206909
0.000210156
0.000211902
0.000212933
0.00021358
0.000214001
0.000214291
0.000214505
0.000214679
0.000214833
0.000214977
0.000215116
0.000215252
0.000215386
0.000215517
0.000215647
0.000215774
0.000215901
0.000216026
0.000216151
0.000216277
0.000216404
0.000216535
0.000216669
0.000216808
0.000216953
0.000217105
0.000217265
0.000217434
0.000217614
0.000217804
0.000218006
0.000218221
0.000218448
0.000218688
0.000218941
0.000219208
0.000219486
0.000219777
0.000220077
0.000220377
0.000220669
0.000220953
0.00022123
0.000221498
0.000221756
0.000222005
0.000222244
0.000222471
0.000222687
0.00022289
0.000223072
0.000223209
0.000223298
0.000223343
0.000223348
0.000223321
0.000223268
0.000223196
0.000223111
0.000223013
0.000222903
0.000222775
0.000222626
0.00022246
0.00022228
0.000222086
0.000221883
0.000221677
0.000221475
0.000221286
0.000221122
0.000220996
0.000220922
0.000220912
0.000220972
0.000221098
0.000221286
0.000221535
0.000221851
0.000222225
0.000222663
0.000223172
0.000223758
0.000224428
0.000225193
0.000226065
0.000227047
0.000228206
0.000229289
0.0002308
0.000231905
0.000234134
0.000236683
0.000244282
0.000266332
0.000290846
0.000291298
0.000284825
0.000272087
0.000256731
0.000252619
0.00024947
0.000244615
0.000238582
0.000231352
0.000223656
0.000123037
0.000181218
0.000200052
0.000207097
0.000210365
0.00021212
0.000213153
0.000213793
0.000214202
0.000214479
0.000214683
0.00021485
0.000214999
0.000215141
0.000215278
0.000215414
0.000215549
0.000215683
0.000215816
0.000215948
0.000216079
0.000216211
0.000216343
0.000216477
0.000216614
0.000216754
0.000216898
0.000217048
0.000217204
0.000217367
0.00021754
0.000217721
0.000217913
0.000218117
0.000218332
0.00021856
0.0002188
0.000219054
0.00021932
0.000219599
0.00021989
0.000220193
0.000220503
0.00022081
0.000221109
0.0002214
0.000221682
0.000221956
0.000222219
0.000222473
0.000222716
0.000222947
0.000223165
0.000223371
0.000223558
0.000223704
0.000223808
0.000223872
0.000223899
0.000223895
0.000223864
0.000223811
0.000223741
0.000223656
0.000223554
0.000223435
0.000223293
0.00022313
0.000222954
0.000222764
0.000222564
0.00022236
0.000222158
0.00022197
0.000221806
0.000221678
0.000221602
0.000221586
0.000221636
0.000221747
0.000221916
0.000222144
0.000222434
0.000222787
0.000223204
0.000223689
0.000224247
0.000224883
0.000225602
0.000226411
0.000227282
0.000228382
0.000229308
0.000230769
0.000231663
0.000233863
0.000235834
0.000242852
0.000264689
0.000286344
0.000286752
0.000281467
0.000269087
0.000252051
0.000248249
0.000245949
0.000242302
0.000237554
0.000231384
0.00022413
0.000122963
0.000181313
0.000200206
0.000207294
0.000210581
0.000212345
0.000213381
0.000214014
0.000214412
0.000214676
0.000214871
0.000215032
0.000215177
0.000215316
0.000215453
0.000215589
0.000215725
0.000215862
0.000215998
0.000216135
0.000216273
0.000216411
0.000216551
0.000216694
0.00021684
0.00021699
0.000217145
0.000217306
0.000217474
0.00021765
0.000217836
0.000218031
0.000218237
0.000218455
0.000218685
0.000218927
0.000219183
0.000219452
0.000219733
0.000220027
0.000220333
0.00022065
0.000220971
0.000221286
0.000221593
0.000221891
0.000222181
0.000222461
0.000222731
0.00022299
0.000223238
0.000223473
0.000223696
0.000223905
0.000224098
0.000224258
0.000224379
0.000224463
0.000224512
0.000224529
0.000224519
0.000224486
0.000224433
0.000224361
0.000224271
0.000224162
0.000224033
0.000223881
0.000223708
0.00022352
0.000223322
0.000223119
0.000222917
0.000222726
0.000222558
0.000222424
0.000222339
0.000222312
0.000222345
0.000222437
0.000222584
0.000222788
0.000223051
0.000223376
0.000223765
0.000224217
0.000224735
0.000225319
0.000225975
0.000226719
0.000227508
0.000228522
0.00022931
0.000230626
0.000231367
0.000233462
0.000235245
0.000241832
0.000263783
0.000281252
0.000281766
0.000279127
0.000267174
0.000248576
0.000244592
0.00024268
0.000239823
0.000236083
0.000230965
0.000224392
0.000122877
0.000181412
0.000200369
0.000207497
0.000210801
0.000212578
0.00021362
0.000214248
0.000214631
0.000214883
0.000215068
0.000215223
0.000215365
0.000215502
0.000215639
0.000215776
0.000215915
0.000216054
0.000216195
0.000216337
0.00021648
0.000216626
0.000216775
0.000216926
0.000217082
0.000217243
0.00021741
0.000217583
0.000217764
0.000217954
0.000218154
0.000218364
0.000218586
0.00021882
0.000219066
0.000219325
0.000219598
0.000219884
0.000220182
0.000220494
0.000220817
0.00022115
0.000221482
0.000221806
0.000222122
0.000222429
0.000222727
0.000223014
0.000223292
0.000223557
0.000223811
0.000224053
0.00022428
0.000224493
0.000224691
0.000224867
0.000225007
0.000225111
0.000225182
0.000225221
0.000225232
0.000225219
0.000225183
0.000225126
0.000225049
0.000224953
0.000224837
0.0002247
0.000224537
0.000224354
0.000224158
0.000223955
0.000223753
0.000223559
0.000223384
0.00022324
0.000223142
0.000223096
0.000223108
0.000223175
0.000223298
0.000223475
0.00022371
0.000224003
0.000224358
0.000224772
0.000225247
0.000225784
0.000226385
0.000227065
0.000227772
0.000228677
0.000229329
0.000230456
0.00023109
0.000233024
0.000234927
0.000241113
0.000263528
0.000276753
0.000277456
0.000277832
0.000266208
0.000246328
0.000241791
0.000239818
0.000237412
0.000234439
0.00023029
0.000224491
0.000122778
0.000181516
0.000200539
0.000207702
0.000211026
0.000212822
0.000213874
0.000214489
0.000214857
0.000215098
0.000215275
0.000215425
0.000215564
0.0002157
0.000215837
0.000215976
0.000216117
0.00021626
0.000216405
0.000216553
0.000216703
0.000216857
0.000217014
0.000217175
0.000217342
0.000217514
0.000217693
0.00021788
0.000218075
0.00021828
0.000218496
0.000218722
0.000218961
0.000219212
0.000219476
0.000219754
0.000220046
0.000220352
0.00022067
0.000221002
0.000221345
0.000221694
0.000222037
0.000222371
0.000222697
0.000223014
0.000223321
0.000223617
0.000223903
0.000224176
0.000224438
0.000224685
0.000224918
0.000225136
0.000225338
0.000225523
0.000225685
0.000225811
0.000225904
0.000225966
0.000225999
0.000226006
0.000225989
0.000225949
0.000225886
0.000225803
0.000225702
0.00022558
0.000225435
0.000225264
0.000225073
0.000224871
0.000224667
0.000224469
0.000224287
0.000224132
0.000224016
0.000223948
0.000223934
0.000223972
0.000224065
0.000224213
0.000224416
0.000224677
0.000224996
0.000225372
0.000225806
0.000226297
0.000226846
0.000227461
0.000228081
0.000228861
0.000229376
0.000230284
0.000230875
0.000232582
0.000234894
0.000240726
0.000263448
0.000273651
0.00027455
0.000277359
0.000265984
0.000245309
0.000239954
0.000237596
0.000235349
0.000232841
0.000229514
0.000224515
0.000122667
0.000181625
0.000200715
0.000207904
0.000211263
0.000213083
0.000214137
0.000214736
0.000215091
0.00021532
0.000215491
0.000215637
0.000215774
0.00021591
0.000216047
0.000216188
0.000216331
0.000216478
0.000216629
0.000216783
0.00021694
0.000217102
0.000217269
0.000217441
0.000217619
0.000217803
0.000217996
0.000218197
0.000218408
0.000218629
0.000218861
0.000219106
0.000219363
0.000219634
0.000219918
0.000220217
0.000220531
0.000220858
0.0002212
0.000221554
0.000221919
0.000222281
0.000222636
0.000222982
0.000223318
0.000223646
0.000223963
0.00022427
0.000224565
0.000224847
0.000225117
0.000225372
0.000225611
0.000225835
0.000226042
0.000226232
0.000226403
0.000226552
0.00022667
0.000226756
0.000226813
0.000226843
0.000226847
0.000226825
0.000226779
0.000226712
0.000226625
0.000226517
0.000226389
0.000226238
0.000226063
0.000225868
0.000225662
0.000225459
0.000225269
0.000225102
0.000224967
0.000224875
0.000224831
0.000224838
0.000224897
0.00022501
0.000225179
0.000225404
0.000225686
0.000226025
0.000226419
0.000226868
0.00022737
0.000227925
0.000228456
0.000229099
0.000229481
0.000230163
0.000230774
0.000232218
0.000234988
0.000240765
0.000263632
0.000271933
0.000272997
0.000277309
0.00026652
0.000245438
0.000239115
0.000236279
0.000233999
0.00023167
0.000228862
0.000224562
0.000122543
0.000181742
0.000200902
0.000208105
0.000211508
0.00021336
0.000214405
0.000214989
0.00021533
0.000215551
0.000215716
0.000215858
0.000215994
0.00021613
0.000216269
0.000216411
0.000216559
0.00021671
0.000216866
0.000217027
0.000217193
0.000217363
0.00021754
0.000217723
0.000217913
0.000218112
0.000218318
0.000218535
0.000218762
0.000219001
0.000219252
0.000219516
0.000219794
0.000220086
0.000220394
0.000220716
0.000221054
0.000221406
0.000221773
0.000222154
0.000222537
0.000222912
0.000223279
0.000223637
0.000223986
0.000224325
0.000224654
0.000224972
0.000225277
0.00022557
0.000225848
0.000226111
0.000226359
0.000226589
0.000226802
0.000226997
0.000227173
0.000227329
0.000227465
0.000227579
0.000227665
0.000227721
0.000227748
0.000227748
0.000227723
0.000227674
0.000227603
0.000227511
0.000227398
0.000227264
0.000227111
0.000226935
0.000226738
0.000226532
0.000226333
0.000226152
0.000225999
0.000225882
0.000225808
0.00022578
0.000225802
0.000225878
0.000226008
0.000226195
0.000226438
0.000226738
0.000227095
0.000227507
0.00022797
0.000228475
0.000228926
0.000229448
0.000229709
0.000230214
0.000230782
0.000232115
0.000235315
0.000241163
0.000264072
0.000271155
0.000272431
0.000277606
0.000267598
0.000246569
0.000239106
0.000235752
0.000233258
0.000230919
0.000228274
0.000224643
0.000122408
0.000181864
0.0002011
0.00020832
0.000211762
0.000213646
0.00021468
0.000215248
0.000215577
0.000215789
0.000215949
0.000216089
0.000216224
0.000216361
0.000216501
0.000216647
0.000216798
0.000216955
0.000217117
0.000217286
0.00021746
0.00021764
0.000217828
0.000218023
0.000218226
0.000218439
0.000218661
0.000218894
0.00021914
0.000219398
0.000219669
0.000219955
0.000220255
0.000220572
0.000220904
0.000221253
0.000221618
0.000221999
0.000222395
0.000222798
0.000223195
0.000223583
0.000223964
0.000224336
0.000224699
0.000225051
0.000225393
0.000225722
0.000226039
0.000226342
0.000226631
0.000226904
0.00022716
0.000227398
0.000227619
0.00022782
0.000228001
0.000228163
0.000228304
0.000228427
0.000228533
0.000228618
0.000228679
0.000228707
0.000228707
0.000228682
0.000228631
0.000228556
0.00022846
0.000228343
0.000228207
0.000228053
0.000227879
0.000227684
0.000227481
0.000227286
0.000227114
0.000226973
0.000226868
0.000226805
0.000226789
0.000226823
0.000226912
0.000227056
0.000227258
0.000227519
0.00022784
0.000228219
0.00022865
0.000229113
0.000229498
0.000229941
0.000230099
0.00023053
0.000231088
0.000232609
0.000236132
0.000241961
0.000263328
0.000270431
0.000272078
0.000278668
0.000269145
0.00024803
0.000239655
0.000235607
0.000232774
0.000230064
0.000227114
0.000224597
0.000122259
0.000181989
0.000201296
0.000208557
0.000212029
0.000213938
0.000214959
0.000215512
0.00021583
0.000216035
0.000216191
0.000216329
0.000216464
0.000216602
0.000216745
0.000216895
0.00021705
0.000217213
0.000217382
0.000217558
0.000217742
0.000217933
0.000218132
0.00021834
0.000218558
0.000218786
0.000219025
0.000219276
0.000219541
0.00021982
0.000220114
0.000220423
0.000220749
0.000221092
0.000221452
0.00022183
0.000222226
0.000222639
0.000223063
0.000223481
0.000223892
0.000224295
0.00022469
0.000225077
0.000225454
0.00022582
0.000226175
0.000226518
0.000226847
0.000227163
0.000227463
0.000227746
0.000228013
0.000228261
0.000228491
0.000228701
0.00022889
0.000229059
0.000229207
0.000229339
0.000229451
0.000229544
0.000229615
0.000229666
0.000229698
0.000229713
0.000229694
0.000229644
0.000229569
0.00022947
0.000229352
0.000229216
0.000229063
0.000228894
0.000228704
0.000228505
0.000228315
0.000228149
0.000228014
0.000227917
0.000227863
0.000227855
0.000227899
0.000227999
0.000228157
0.000228376
0.00022866
0.000229007
0.000229405
0.000229829
0.000230158
0.000230577
0.000230696
0.000231218
0.000231852
0.000233701
0.000237331
0.00024314
0.000261175
0.000268926
0.000270891
0.000280783
0.00027108
0.000249503
0.000240477
0.00023559
0.000232342
0.000228914
0.000225689
0.000223502
0.000122096
0.000182111
0.000201473
0.000208812
0.000212317
0.000214237
0.000215243
0.000215781
0.000216088
0.000216287
0.00021644
0.000216578
0.000216714
0.000216854
0.000217
0.000217153
0.000217315
0.000217483
0.00021766
0.000217845
0.000218038
0.000218241
0.000218453
0.000218675
0.000218908
0.000219153
0.00021941
0.000219681
0.000219967
0.000220269
0.000220587
0.000220923
0.000221276
0.000221649
0.000222041
0.000222452
0.000222882
0.000223326
0.000223766
0.000224199
0.000224625
0.000225043
0.000225454
0.000225855
0.000226247
0.000226628
0.000226998
0.000227355
0.000227698
0.000228027
0.00022834
0.000228637
0.000228917
0.000229178
0.000229419
0.000229641
0.000229841
0.00023002
0.000230179
0.00023032
0.000230442
0.000230543
0.000230623
0.00023068
0.00023072
0.000230741
0.000230743
0.000230728
0.000230697
0.000230637
0.000230541
0.000230423
0.000230287
0.000230137
0.000229972
0.000229791
0.000229599
0.000229412
0.000229249
0.000229118
0.000229025
0.000228977
0.000228976
0.000229029
0.000229141
0.000229316
0.000229561
0.000229871
0.00023023
0.000230615
0.000230907
0.000231367
0.000231525
0.000232253
0.00023297
0.000235187
0.000238665
0.000244646
0.000258125
0.000266711
0.000268868
0.000283044
0.000273568
0.000250532
0.000241487
0.000235597
0.000232062
0.000227954
0.000224539
0.000222278
0.000121919
0.000182235
0.000201625
0.000209078
0.000212629
0.00021454
0.00021553
0.000216055
0.000216353
0.000216546
0.000216698
0.000216835
0.000216972
0.000217115
0.000217265
0.000217423
0.00021759
0.000217766
0.000217951
0.000218146
0.00021835
0.000218565
0.00021879
0.000219027
0.000219277
0.00021954
0.000219818
0.00022011
0.000220419
0.000220746
0.000221091
0.000221455
0.00022184
0.000222245
0.000222672
0.00022312
0.000223584
0.000224044
0.000224499
0.000224947
0.000225388
0.000225822
0.000226248
0.000226665
0.000227073
0.000227469
0.000227854
0.000228227
0.000228586
0.000228931
0.000229261
0.000229574
0.00022987
0.000230147
0.000230404
0.00023064
0.000230854
0.000231047
0.000231221
0.000231376
0.000231511
0.000231624
0.000231713
0.00023178
0.000231828
0.000231856
0.000231864
0.000231855
0.000231831
0.000231793
0.000231743
0.000231669
0.000231555
0.00023142
0.00023127
0.000231108
0.000230932
0.000230747
0.000230567
0.000230406
0.000230278
0.00023019
0.000230146
0.000230153
0.000230217
0.000230345
0.000230543
0.000230807
0.000231119
0.000231475
0.000231756
0.000232299
0.000232536
0.000233488
0.000234252
0.000236783
0.000240088
0.000246385
0.000256641
0.000265534
0.000268008
0.000284738
0.000275746
0.000250752
0.000242643
0.000235734
0.000232201
0.00022745
0.000223973
0.000221466
0.000121729
0.000182364
0.000201789
0.000209351
0.00021295
0.000214847
0.00021582
0.000216332
0.000216622
0.000216812
0.000216962
0.000217101
0.00021724
0.000217386
0.00021754
0.000217704
0.000217878
0.000218062
0.000218256
0.000218461
0.000218677
0.000218904
0.000219145
0.000219398
0.000219666
0.000219949
0.000220248
0.000220564
0.000220898
0.000221251
0.000221626
0.000222022
0.000222441
0.000222883
0.000223349
0.000223832
0.000224311
0.000224786
0.000225256
0.000225719
0.000226175
0.000226625
0.000227066
0.000227499
0.000227922
0.000228336
0.000228738
0.000229129
0.000229507
0.000229872
0.000230222
0.000230555
0.000230871
0.000231168
0.000231445
0.0002317
0.000231933
0.000232143
0.000232336
0.00023251
0.000232662
0.00023279
0.000232893
0.000232973
0.000233031
0.000233067
0.000233083
0.000233079
0.000233059
0.000233025
0.00023298
0.000232927
0.000232862
0.000232749
0.00023261
0.000232456
0.000232291
0.000232116
0.000231936
0.000231764
0.000231611
0.000231488
0.000231404
0.000231367
0.000231383
0.000231459
0.0002316
0.000231805
0.000232067
0.000232407
0.000232697
0.000233336
0.000233651
0.000234803
0.000235605
0.000238371
0.000241537
0.000248307
0.000259363
0.000267836
0.000272808
0.000285987
0.00027751
0.00025153
0.000243676
0.00023641
0.00023272
0.000227612
0.000224083
0.000221307
0.000121526
0.000182503
0.000201977
0.00020963
0.000213275
0.000215158
0.000216113
0.000216614
0.000216897
0.000217084
0.000217234
0.000217374
0.000217516
0.000217666
0.000217825
0.000217995
0.000218177
0.000218369
0.000218573
0.000218789
0.000219018
0.00021926
0.000219516
0.000219787
0.000220074
0.000220379
0.000220701
0.000221042
0.000221404
0.000221788
0.000222195
0.000222626
0.000223083
0.000223565
0.000224066
0.000224563
0.000225056
0.000225545
0.000226028
0.000226505
0.000226976
0.000227441
0.000227898
0.000228347
0.000228788
0.000229221
0.000229644
0.000230057
0.000230458
0.000230846
0.000231221
0.000231579
0.00023192
0.000232242
0.000232543
0.000232822
0.000233078
0.000233312
0.000233529
0.000233726
0.0002339
0.000234047
0.000234168
0.000234265
0.000234337
0.000234385
0.000234409
0.000234412
0.000234396
0.000234364
0.000234319
0.000234266
0.000234207
0.000234127
0.000234003
0.000233852
0.000233687
0.000233512
0.000233332
0.000233154
0.000232986
0.00023284
0.000232725
0.000232649
0.000232617
0.000232637
0.000232713
0.000232856
0.000233072
0.000233402
0.000233711
0.00023444
0.000234827
0.000236153
0.000237001
0.000239961
0.000243021
0.000250301
0.000264145
0.000272118
0.000280112
0.00028544
0.000277194
0.000253632
0.000243912
0.000238168
0.000233464
0.000228422
0.000224627
0.000221593
0.000121309
0.000182651
0.000202188
0.000209913
0.000213602
0.00021547
0.00021641
0.000216899
0.000217177
0.000217362
0.000217512
0.000217654
0.0002178
0.000217954
0.00021812
0.000218297
0.000218486
0.000218688
0.000218902
0.000219131
0.000219373
0.000219631
0.000219904
0.000220194
0.000220503
0.00022083
0.000221178
0.000221547
0.000221939
0.000222356
0.000222798
0.000223268
0.000223766
0.000224282
0.000224795
0.000225304
0.000225809
0.00022631
0.000226805
0.000227296
0.000227781
0.000228261
0.000228734
0.000229203
0.000229665
0.00023012
0.000230568
0.000231007
0.000231436
0.000231854
0.000232258
0.000232647
0.000233018
0.00023337
0.000233701
0.000234008
0.000234292
0.000234556
0.000234803
0.000235028
0.000235229
0.000235401
0.000235544
0.000235662
0.000235752
0.000235815
0.000235851
0.000235863
0.000235852
0.000235822
0.000235777
0.000235719
0.000235655
0.000235577
0.000235461
0.00023531
0.000235137
0.000234951
0.000234759
0.000234567
0.000234382
0.000234213
0.000234069
0.000233957
0.000233882
0.00023385
0.000233869
0.000233956
0.00023413
0.00023445
0.00023478
0.000235582
0.000236044
0.000237524
0.000238451
0.0002416
0.000244701
0.000252528
0.000269101
0.000275991
0.000288623
0.000289899
0.000277482
0.000255542
0.000244888
0.000239842
0.000234436
0.000229396
0.000225394
0.000222073
0.000121078
0.000182809
0.000202423
0.000210203
0.000213932
0.000215785
0.000216709
0.000217188
0.000217461
0.000217644
0.000217796
0.000217941
0.000218091
0.000218251
0.000218423
0.000218608
0.000218806
0.000219017
0.000219244
0.000219485
0.000219743
0.000220017
0.000220309
0.00022062
0.000220951
0.000221303
0.000221679