/*--------------------------------*- C++ -*----------------------------------*\
| =========                 |                                                 |
| \\      /  F ield         | OpenFOAM: The Open Source CFD Toolbox           |
|  \\    /   O peration     | Version:  v2106                                 |
|   \\  /    A nd           | Website:  www.openfoam.com                      |
|    \\/     M anipulation  |                                                 |
\*---------------------------------------------------------------------------*/
FoamFile
{
    version     2.0;
    format      ascii;
    arch        "LSB;label=32;scalar=64";
    class       volScalarField;
    location    "1.4";
    object      nut;
}
// * * * * * * * * * * * * * * * * * * * * * * * * * * * * * * * * * * * * * //

dimensions      [0 2 -1 0 0 0 0];

internalField   nonuniform List<scalar> 
29678
(
7.34578e-06
0.000123822
0.000342906
0.000629971
0.000909616
0.00113191
0.0012837
0.00137535
0.00142518
0.00144991
0.00146129
0.00146623
0.00146831
0.00146919
0.00146958
0.00146976
0.00146983
0.00146983
0.00146979
0.00146969
0.00146956
0.0014694
0.00146923
0.00146905
0.00146888
0.00146873
0.00146862
0.00124683
0.0010486
0.000892831
0.000768999
0.000668827
0.000586604
0.000518263
0.000460833
0.000412063
0.000370229
0.000333996
0.000302311
0.000274324
0.000249331
0.000226737
0.000206023
0.000186714
0.000168359
0.000150516
0.000132756
0.000114726
9.62172e-05
7.70779e-05
5.77659e-05
2.56278e-05
2.12618e-05
2.158e-05
2.17258e-05
1.92672e-05
0.000136211
0.000227629
0.000336199
0.00039399
0.000371334
0.000324594
0.000284773
0.000255193
0.00023236
0.000214018
0.000201074
0.00019389
0.000191978
0.000195718
0.000206903
0.000229644
0.000274596
0.000375109
0.000647364
0.00100765
0.000527836
0.000317228
0.00023042
0.000185141
0.000157434
0.000138433
0.000124163
0.000112475
0.000102279
9.31467e-05
8.47264e-05
7.75614e-05
7.19548e-05
6.85994e-05
6.70877e-05
4.51385e-05
3.19525e-05
2.45959e-05
2.39393e-05
2.37324e-05
3.33042e-05
6.19404e-05
8.4632e-05
0.000137903
9.08074e-05
5.7497e-05
4.76932e-05
5.03559e-05
6.11514e-05
4.59738e-05
4.08874e-05
3.21989e-05
4.18815e-05
6.84493e-06
7.36298e-06
0.000123932
0.000343251
0.00063054
0.000910281
0.00113255
0.00128425
0.00137579
0.00142554
0.00145022
0.00146155
0.00146643
0.00146843
0.00146922
0.00146952
0.00146961
0.00146959
0.00146951
0.00146938
0.00146922
0.00146902
0.00146881
0.00146859
0.00146838
0.00146821
0.00131835
0.0010794
0.000898197
0.000758387
0.000648125
0.000559748
0.000487903
0.000428725
0.000379405
0.000337871
0.000302536
0.000272184
0.000245878
0.000222867
0.00020255
0.000184429
0.00016809
0.00015318
0.000139387
0.00012645
0.000114174
0.000102476
9.14802e-05
8.1609e-05
7.31581e-05
6.38789e-05
4.95814e-05
3.82135e-05
4.00144e-05
5.86534e-05
0.00010109
0.000165499
0.000244695
0.000318135
0.000341134
0.000317074
0.000279487
0.000246821
0.000221679
0.000201784
0.000186102
0.000175374
0.000169487
0.000168231
0.000172322
0.000183382
0.000204458
0.000242328
0.000312197
0.00043773
0.000544652
0.000420642
0.000284115
0.000210945
0.000170596
0.000145816
0.000128928
0.00011639
0.000106314
9.76137e-05
8.97649e-05
8.24098e-05
7.56333e-05
7.00579e-05
6.68878e-05
6.92245e-05
8.94312e-05
0.000145059
8.77578e-05
6.05706e-05
6.19285e-05
7.72527e-05
0.000177177
0.000121564
0.00010393
0.000100734
5.20545e-05
4.55055e-05
6.2619e-05
5.71423e-05
4.67142e-05
4.02708e-05
3.26298e-05
3.5264e-05
4.01272e-05
7.37462e-06
0.000124082
0.000343726
0.00063134
0.000911241
0.00113349
0.00128506
0.00137646
0.00142609
0.00145069
0.00146195
0.00146675
0.00146865
0.00146934
0.00146955
0.00146954
0.00146944
0.00146928
0.00146907
0.00146884
0.00146858
0.00146832
0.00146806
0.00146782
0.00146762
0.0012753
0.00104114
0.000864569
0.000729254
0.000622962
0.000538071
0.000469235
0.000412642
0.000365537
0.000325895
0.000292195
0.000263268
0.000238216
0.000216326
0.00019703
0.000179864
0.000164446
0.000150458
0.000137627
0.000125733
0.000114605
0.0001041
9.40351e-05
8.39777e-05
7.33321e-05
6.30574e-05
5.85188e-05
6.26966e-05
7.49552e-05
9.02528e-05
0.000110505
0.000148221
0.000208331
0.000307969
0.000474227
0.00063506
0.000569967
0.000441544
0.00035384
0.000297827
0.000260627
0.000235403
0.000218723
0.000208805
0.000205175
0.00020851
0.000220724
0.000245555
0.00028725
0.000338456
0.00035512
0.000313756
0.00025793
0.000214089
0.000183168
0.000161061
0.000144561
0.000131664
0.000121216
0.000112536
0.000105222
9.90044e-05
9.41076e-05
9.03691e-05
8.73224e-05
8.55994e-05
8.80109e-05
0.000100421
9.8634e-05
8.34201e-05
7.81932e-05
9.43917e-05
0.000140947
0.000111474
0.000159783
8.17496e-05
7.07928e-05
9.5207e-05
7.0862e-05
6.41746e-05
4.83384e-05
4.16907e-05
3.69705e-05
4.33038e-05
4.44923e-05
7.38802e-06
0.000124254
0.000344272
0.00063227
0.00091236
0.00113457
0.00128598
0.0013772
0.0014267
0.00145122
0.00146239
0.00146708
0.00146887
0.00146947
0.0014696
0.00146953
0.00146937
0.00146916
0.00146891
0.00146864
0.00146836
0.00146807
0.00146779
0.00146754
0.00146732
0.00121685
0.00100596
0.000842482
0.00071439
0.000612523
0.000530472
0.000463551
0.000408311
0.000362202
0.000323327
0.000290246
0.000261843
0.000237251
0.000215785
0.0001969
0.000180153
0.000165185
0.000151703
0.000139461
0.000128264
0.000117976
0.000108503
9.9813e-05
9.19948e-05
8.55242e-05
8.10538e-05
7.72668e-05
7.4208e-05
7.68092e-05
9.06763e-05
0.000120836
0.000174256
0.000276081
0.000532657
0.00130677
0.00131271
0.000628966
0.000419012
0.000325194
0.000273369
0.000241459
0.000221254
0.000209116
0.000203154
0.000202624
0.000207663
0.000218771
0.000235911
0.000257558
0.000275537
0.00027543
0.000254642
0.000224845
0.000196304
0.000172887
0.000154532
0.000140095
0.000128441
0.000118737
0.000110425
0.000103176
9.67856e-05
9.13615e-05
8.74095e-05
8.54783e-05
8.57975e-05
8.92141e-05
9.40905e-05
8.91082e-05
7.95902e-05
7.75924e-05
8.97509e-05
0.000116616
0.000103866
0.000114526
0.000114908
8.68398e-05
0.000107857
8.09792e-05
7.05231e-05
5.58589e-05
4.86153e-05
4.33545e-05
4.39007e-05
3.63676e-05
7.40298e-06
0.000124437
0.000344862
0.000633277
0.000913563
0.0011357
0.00128691
0.00137794
0.00142734
0.00145176
0.00146281
0.00146736
0.00146903
0.00146955
0.00146961
0.0014695
0.0014693
0.00146906
0.00146879
0.0014685
0.0014682
0.0014679
0.00146762
0.00146736
0.00133716
0.0011179
0.000939162
0.00079607
0.000681093
0.000588055
0.000512103
0.000449506
0.00039741
0.000353647
0.000316569
0.000284902
0.000257644
0.000234007
0.000213368
0.000195227
0.000179181
0.000164903
0.000152132
0.000140652
0.000130299
0.000120967
0.000112601
0.000105215
9.89099e-05
9.39017e-05
9.04909e-05
8.9846e-05
9.4832e-05
0.000108645
0.000134875
0.000178577
0.000251545
0.000388949
0.000728295
0.00131967
0.00118588
0.000631789
0.000441325
0.000349582
0.000296932
0.000263671
0.000241934
0.000228087
0.000220251
0.000217397
0.000219181
0.00022522
0.000234629
0.000244922
0.000251387
0.000249209
0.000237753
0.000220086
0.000200581
0.000182289
0.000166495
0.000153372
0.000142598
0.000133712
0.000126354
0.000120265
0.000115194
0.000111147
0.000108036
0.000105645
0.000103906
0.000103105
0.000102917
9.8873e-05
9.3865e-05
9.11094e-05
0.000103722
0.000129712
0.000108694
8.57306e-05
8.98436e-05
8.81419e-05
0.000118391
7.9851e-05
7.16373e-05
5.74626e-05
5.09233e-05
4.66732e-05
4.70238e-05
3.79205e-05
7.41969e-06
0.000124629
0.000345483
0.000634335
0.000914795
0.0011368
0.00128778
0.0013787
0.00142805
0.00145236
0.00146321
0.00146757
0.00146911
0.00146954
0.00146955
0.00146939
0.00146916
0.00146889
0.0014686
0.00146829
0.00146797
0.00146765
0.00146735
0.00137216
0.0011766
0.00100309
0.000857843
0.000737786
0.000638746
0.000556717
0.000488474
0.000431378
0.000383295
0.000342531
0.000307743
0.000277864
0.000252044
0.000229599
0.000209979
0.000192742
0.000177528
0.00016405
0.000152074
0.000141415
0.000131937
0.000123559
0.000116258
0.000110072
0.000105124
0.000101648
0.000100027
0.000100967
0.00010566
0.000115469
0.000132456
0.000160076
0.000203661
0.000272835
0.000382703
0.000531051
0.000593985
0.00050601
0.000405534
0.000335827
0.000289836
0.00025896
0.000237983
0.000223933
0.000215215
0.000210954
0.000210189
0.000212328
0.000216458
0.000220454
0.000221389
0.000217263
0.000208032
0.000195293
0.000181107
0.000167187
0.000154565
0.000143616
0.000134288
0.000126405
0.000119765
0.000114212
0.000109609
0.000105941
0.000103408
0.000102104
0.000101791
0.00010192
0.000102522
0.000100063
9.78879e-05
9.58189e-05
0.000105862
0.00013958
0.000120778
7.88795e-05
7.18832e-05
8.15297e-05
9.9381e-05
7.28538e-05
6.95606e-05
5.85999e-05
5.37509e-05
5.04718e-05
4.97603e-05
3.8468e-05
7.43839e-06
0.000124828
0.00034613
0.000635422
0.000915983
0.00113774
0.00128856
0.00137957
0.00142893
0.00145304
0.00146358
0.0014677
0.00146909
0.00146943
0.00146938
0.00146917
0.00146891
0.0014686
0.00146828
0.00146793
0.00146758
0.00146723
0.0013304
0.00117502
0.00102641
0.000893609
0.000778462
0.000679651
0.000595422
0.000523914
0.000463258
0.000411717
0.000367771
0.000330156
0.000297806
0.000269855
0.000245597
0.00022445
0.000205941
0.000189682
0.000175359
0.000162719
0.00015156
0.000141721
0.00013309
0.000125608
0.000119268
0.000114124
0.000110306
0.000108053
0.000107754
0.000110068
0.000116132
0.000127692
0.00014679
0.00017594
0.000218363
0.000277094
0.000348329
0.000407193
0.000417665
0.00038319
0.000337071
0.000297436
0.00026726
0.000245121
0.000229213
0.000218183
0.000211011
0.00020687
0.000205418
0.000205895
0.00020713
0.000208011
0.000207202
0.00020374
0.000197491
0.000189015
0.000179267
0.000169279
0.000159847
0.000151382
0.000143997
0.000137664
0.000132318
0.000127873
0.000124228
0.000121242
0.000119094
0.000117457
0.000116604
0.000114969
0.000114613
0.000110515
0.000109396
0.000106569
0.000117512
0.000169999
0.000147594
8.25635e-05
5.59675e-05
7.08234e-05
8.41197e-05
6.36681e-05
6.55651e-05
5.81673e-05
5.56701e-05
5.38747e-05
5.32632e-05
4.06727e-05
7.45931e-06
0.000125034
0.000346797
0.000636505
0.000917009
0.00113843
0.00128936
0.00138075
0.00143011
0.00145381
0.00146392
0.00146774
0.00146896
0.0014692
0.00146908
0.00146883
0.00146851
0.00146816
0.00146778
0.00141573
0.00133711
0.00124071
0.00113084
0.00101506
0.000902608
0.000798903
0.000706178
0.000624348
0.000552772
0.000490726
0.000437164
0.000390988
0.000351153
0.000316727
0.000286892
0.000260958
0.000238348
0.000218576
0.00020124
0.000186009
0.000172609
0.000160822
0.000150473
0.000141427
0.000133589
0.000126916
0.00012141
0.000117128
0.000114195
0.00011283
0.000113373
0.000116346
0.000122508
0.000132832
0.000148409
0.000170419
0.000199737
0.000235794
0.000274312
0.000305698
0.00031901
0.000311786
0.000292264
0.000269959
0.000249793
0.000233255
0.000220414
0.000210911
0.000204206
0.000199821
0.000197375
0.00019635
0.000196028
0.000195444
0.000193778
0.000190483
0.000185419
0.000178835
0.000171285
0.000163449
0.000155888
0.000148925
0.000142706
0.000137292
0.000132708
0.000128949
0.000126001
0.000123798
0.000122528
0.000121648
0.000122341
0.000121488
0.000123333
0.000119851
0.00012174
0.000119619
0.00013309
0.000187266
0.000161228
8.27442e-05
4.49966e-05
5.998e-05
7.53568e-05
5.63132e-05
6.28133e-05
5.84952e-05
5.82616e-05
5.77436e-05
5.73703e-05
4.35361e-05
7.48271e-06
0.000125245
0.000347479
0.000637528
0.000917702
0.00113884
0.00129044
0.00138248
0.00143162
0.00145464
0.00146419
0.00146766
0.00145191
0.00142269
0.00139628
0.0013698
0.00134045
0.00130532
0.00126157
0.00120699
0.00114028
0.00106193
0.000976118
0.000887236
0.000799381
0.000716311
0.000640361
0.000572055
0.000511258
0.000457652
0.000410663
0.000369603
0.000333774
0.000302516
0.000275209
0.000251325
0.000230401
0.000212039
0.000195905
0.000181718
0.000169247
0.000158304
0.000148742
0.000140441
0.000133325
0.00012736
0.000122551
0.000118949
0.000116664
0.000115874
0.000116847
0.000119961
0.000125711
0.000134679
0.00014743
0.000164361
0.000185384
0.000209249
0.000232864
0.000251544
0.00026103
0.000260183
0.000251697
0.000239733
0.000227409
0.000216356
0.000207197
0.000200044
0.0001948
0.000191403
0.000189098
0.000187568
0.000186436
0.000185162
0.00018324
0.000180328
0.000176299
0.000171278
0.000165609
0.000159737
0.000154034
0.000148729
0.000143963
0.000139823
0.000136374
0.00013365
0.000131671
0.000130416
0.000130078
0.00012978
0.000131878
0.000131338
0.000135695
0.000132419
0.000138574
0.00013827
0.000160293
0.000194554
0.000124562
8.29002e-05
3.84073e-05
5.21794e-05
7.08576e-05
5.18084e-05
6.23894e-05
6.02569e-05
6.17304e-05
6.22193e-05
6.23142e-05
4.72738e-05
7.50885e-06
0.000125461
0.000348166
0.000638403
0.000917864
0.00113915
0.00129221
0.00138492
0.0014334
0.00140754
0.00136614
0.00132886
0.00129554
0.00126517
0.00123602
0.00120624
0.00117403
0.00113757
0.0010951
0.00104541
0.000987908
0.000923137
0.000853337
0.000781806
0.000711121
0.000643649
0.000580928
0.000523622
0.000471891
0.000425626
0.000384518
0.000348159
0.000316095
0.000287866
0.000263016
0.000241144
0.000221889
0.000204928
0.000189989
0.000176837
0.000165279
0.000155154
0.000146337
0.000138723
0.000132251
0.000126891
0.000122646
0.000119558
0.000117709
0.000117236
0.00011833
0.000121241
0.000126264
0.000133705
0.000143787
0.000156509
0.000171465
0.000187576
0.000202986
0.00021537
0.000222763
0.000224466
0.000221406
0.000215426
0.000208292
0.000201233
0.000194955
0.00018968
0.00018565
0.000182524
0.000180326
0.000178748
0.000177441
0.000176052
0.000174261
0.000171838
0.000168689
0.000164887
0.000160658
0.000156298
0.000152056
0.000148101
0.000144555
0.00014152
0.000139082
0.000137311
0.000136268
0.000135975
0.000136725
0.000137423
0.000141382
0.000141566
0.000149736
0.000147658
0.000160853
0.00016545
0.000208675
0.000212471
8.89066e-05
8.389e-05
3.37183e-05
4.66724e-05
7.02612e-05
5.02587e-05
6.45202e-05
6.33647e-05
6.64016e-05
6.75563e-05
6.82542e-05
5.19264e-05
7.53803e-06
0.000125683
0.000348843
0.000639021
0.00091743
0.00113974
0.00129502
0.00132471
0.00129322
0.00125956
0.00122508
0.00119185
0.0011605
0.0011305
0.00110081
0.00107022
0.00103752
0.00100154
0.0009612
0.000915836
0.000865381
0.000810494
0.000752664
0.000693982
0.000636049
0.000580284
0.000527833
0.00047943
0.000435186
0.00039516
0.000359194
0.000327052
0.00029844
0.000273037
0.000250512
0.00023057
0.000212929
0.000197328
0.000183552
0.000171407
0.000160728
0.000151384
0.000143262
0.000136275
0.000130369
0.000125517
0.000121718
0.000119
0.000117422
0.000117074
0.000118083
0.000120597
0.000124775
0.000130749
0.000138555
0.000148047
0.000158798
0.000170032
0.000180636
0.000189367
0.000195207
0.000197699
0.000197195
0.000194531
0.000190669
0.000186424
0.000182338
0.000178736
0.000175794
0.000173422
0.000171623
0.000170231
0.000169035
0.000167809
0.000166334
0.00016445
0.000162086
0.000159291
0.000156219
0.000153072
0.000150024
0.000147202
0.000144716
0.000142671
0.000141167
0.000140305
0.00014018
0.000140887
0.000142721
0.000144676
0.000150696
0.00015223
0.000165069
0.000165935
0.000190661
0.000207776
0.000298386
0.000259626
7.18335e-05
8.42629e-05
3.04318e-05
4.24359e-05
7.29952e-05
5.09633e-05
6.9898e-05
6.7004e-05
7.27815e-05
7.3997e-05
7.5505e-05
5.76849e-05
7.57061e-06
0.00012591
0.000349489
0.000639245
0.000916697
0.00114111
0.00120034
0.00118125
0.00115946
0.00113187
0.00110218
0.00107217
0.00104266
0.00101356
0.000984261
0.000953989
0.000921971
0.000887479
0.000849916
0.000808964
0.000764722
0.000717757
0.000669075
0.000619943
0.000571663
0.0005249
0.000480568
0.000439264
0.000401227
0.000366483
0.000334965
0.000306549
0.000281051
0.000258235
0.000237876
0.000219748
0.000203636
0.000189335
0.00017667
0.000165484
0.000155641
0.000147029
0.000139549
0.000133127
0.000127715
0.000123287
0.000119837
0.000117378
0.000115946
0.000115597
0.000116402
0.00011844
0.000121783
0.000126461
0.000132428
0.000139507
0.000147345
0.000155407
0.000163012
0.00016945
0.000174135
0.000176788
0.000177529
0.000176751
0.000174975
0.000172728
0.000170334
0.000168159
0.000166127
0.000164474
0.000163156
0.000162089
0.000161162
0.000160233
0.00015916
0.000157827
0.000156181
0.000154253
0.000152148
0.000150006
0.00014795
0.000146084
0.00014451
0.000143332
0.000142662
0.000142621
0.000143342
0.000144989
0.000147903
0.000151189
0.000159128
0.000162908
0.000180405
0.00018708
0.000229568
0.000278364
0.000498172
0.000385931
6.51776e-05
8.18895e-05
2.87363e-05
3.91924e-05
7.70226e-05
5.45984e-05
7.66383e-05
7.19382e-05
8.14305e-05
8.17562e-05
8.45983e-05
6.48465e-05
7.60696e-06
0.00012614
0.00035007
0.00063884
0.000916097
0.00108804
0.00107196
0.0010615
0.00104315
0.00101955
0.000993332
0.000966056
0.000938579
0.000910951
0.000882833
0.00085376
0.000823259
0.00079091
0.0007564
0.000719613
0.000680702
0.000640116
0.000598553
0.000556851
0.000515926
0.000476237
0.000438434
0.00040289
0.000369985
0.000339671
0.000311991
0.000286834
0.000264108
0.000243635
0.000225258
0.000208811
0.000194126
0.000181045
0.000169427
0.000159144
0.000150083
0.000142148
0.000135253
0.000129337
0.000124356
0.000120282
0.000117104
0.000114823
0.000113455
0.00011303
0.00011358
0.000115139
0.000117724
0.000121316
0.00012584
0.000131134
0.000136933
0.000142867
0.00014851
0.000153434
0.000157265
0.00015984
0.000161185
0.000161485
0.000161033
0.000160126
0.000158992
0.00015784
0.000156747
0.000155808
0.000155021
0.000154365
0.000153791
0.000153224
0.000152579
0.000151781
0.000150787
0.000149614
0.000148333
0.000147036
0.000145817
0.00014476
0.000143959
0.000143519
0.000143556
0.000144205
0.000145624
0.000148033
0.000151801
0.000156316
0.00016588
0.000172649
0.000193159
0.000209048
0.00027011
0.000397359
0.000955077
0.000774562
6.41288e-05
7.80424e-05
2.88685e-05
3.72065e-05
8.3016e-05
6.22321e-05
8.18003e-05
7.94887e-05
9.22938e-05
9.09916e-05
9.62873e-05
7.38018e-05
7.6475e-06
0.000126374
0.000350586
0.000637659
0.000916414
0.000973247
0.000965781
0.000957069
0.000940306
0.000919857
0.000896613
0.000871957
0.000846639
0.000820809
0.000794325
0.000766934
0.000738376
0.000708432
0.000676962
0.000643961
0.000609595
0.000574216
0.000538321
0.000502487
0.000467332
0.000433366
0.000400754
0.000369986
0.000341302
0.000314743
0.000290337
0.000268023
0.000247742
0.000229365
0.000212783
0.000197874
0.000184505
0.000172556
0.00016191
0.000152466
0.00014413
0.000136814
0.000130451
0.000124986
0.00012038
0.000116603
0.000113639
0.00011148
0.000110128
0.000109592
0.000109881
0.000110999
0.000112933
0.000115647
0.000119059
0.000123036
0.000127384
0.000131857
0.000136172
0.00014006
0.000143253
0.000145677
0.00014731
0.000148236
0.000148637
0.000148619
0.000148414
0.000148074
0.000147752
0.000147478
0.000147257
0.000147073
0.000146905
0.000146732
0.000146512
0.000146206
0.000145791
0.000145273
0.000144696
0.000144122
0.000143615
0.000143244
0.000143096
0.000143267
0.000143872
0.000145046
0.000146956
0.000149848
0.000154101
0.000159448
0.000169748
0.000178993
0.000199638
0.000225843
0.00028861
0.000457528
0.00072052
0.000767105
6.69488e-05
7.73231e-05
3.00061e-05
3.64358e-05
8.85392e-05
7.29992e-05
8.76214e-05
9.04262e-05
0.000105307
0.000102145
0.00011138
8.48056e-05
7.69285e-06
0.000126615
0.00035108
0.000635983
0.000881808
0.000876884
0.000874557
0.000864776
0.000849604
0.000831511
0.000810815
0.000788576
0.000765402
0.000741501
0.000716861
0.000691374
0.000664925
0.000637425
0.000608838
0.00057922
0.000548736
0.000517661
0.000486361
0.00045525
0.00042474
0.000395317
0.000367037
0.000340207
0.000314989
0.00029163
0.00027002
0.000250177
0.000232035
0.000215523
0.000200551
0.000187034
0.000174867
0.000163956
0.000154207
0.000145536
0.000137862
0.000131111
0.000125228
0.000120166
0.000115887
0.000112362
0.00010957
0.000107499
0.000106138
0.000105484
0.000105531
0.000106265
0.000107664
0.000109682
0.000112247
0.000115254
0.000118561
0.000122001
0.000125392
0.000128535
0.00013127
0.000133533
0.000135298
0.000136597
0.000137553
0.00013817
0.000138603
0.000138917
0.000139219
0.000139531
0.000139848
0.000140156
0.000140441
0.000140687
0.000140889
0.000141037
0.000141129
0.000141175
0.000141201
0.000141243
0.000141345
0.00014156
0.000141959
0.000142627
0.000143667
0.000145202
0.000147382
0.00015044
0.000154714
0.000160071
0.000169868
0.00017924
0.000198204
0.000229206
0.000271091
0.000352466
0.000393114
0.000420476
7.25764e-05
8.32094e-05
3.1535e-05
3.66665e-05
9.09801e-05
8.69354e-05
9.76066e-05
0.000105818
0.00012148
0.000116083
0.000130232
9.78793e-05
7.74372e-06
0.000126861
0.00035152
0.00063461
0.000795755
0.000793365
0.000792999
0.000783155
0.0007695
0.00075328
0.000734765
0.000714706
0.000693576
0.000671607
0.000648863
0.000625336
0.000601004
0.000575861
0.000549936
0.000523316
0.000496156
0.000468677
0.000441158
0.000413905
0.000387221
0.000361414
0.000336752
0.000313159
0.000290929
0.000270229
0.000251017
0.000233308
0.000217044
0.000202176
0.000188642
0.000176374
0.000165297
0.000155329
0.0001464
0.000138432
0.000131359
0.000125121
0.000119672
0.00011497
0.00011098
0.000107672
0.000105025
0.000103019
0.000101641
0.000100878
0.000100715
0.000101132
0.000102101
0.000103579
0.000105505
0.000107797
0.000110355
0.000113061
0.000115793
0.000118388
0.000120771
0.000122892
0.000124718
0.000126269
0.000127545
0.000128616
0.000129539
0.000130377
0.000131183
0.000131984
0.000132782
0.000133565
0.000134312
0.000135006
0.000135642
0.000136226
0.000136773
0.000137301
0.000137839
0.000138406
0.00013903
0.000139747
0.000140606
0.000141675
0.000143039
0.000144799
0.000147072
0.000150046
0.000153982
0.00015865
0.000167143
0.000174756
0.000192336
0.000216288
0.000235707
0.000258968
0.000258607
0.000254761
7.74015e-05
0.000100314
3.23045e-05
3.82108e-05
9.02109e-05
0.000104027
0.000115473
0.000127974
0.000143429
0.000134142
0.00015194
0.000112952
7.80084e-06
0.000127102
0.000351732
0.000633954
0.000723382
0.000719948
0.000719818
0.000710797
0.000698638
0.000684042
0.000667394
0.000649263
0.000630023
0.000609901
0.000589006
0.00056739
0.000545092
0.000522156
0.000498648
0.000474671
0.000450367
0.00042592
0.000401548
0.000377483
0.000353954
0.000331172
0.000309407
0.000288608
0.000268915
0.000250425
0.000233288
0.000217414
0.00020279
0.000189373
0.000177116
0.000165964
0.000155866
0.000146752
0.000138562
0.000131228
0.000124699
0.000118927
0.000113869
0.00010949
0.000105757
0.00010264
0.000100117
9.81685e-05
9.67751e-05
9.59202e-05
9.55855e-05
9.57488e-05
9.63817e-05
9.74463e-05
9.88938e-05
0.000100663
0.00010268
0.000104863
0.000107128
0.000109313
0.000111426
0.000113414
0.000115246
0.000116955
0.000118451
0.000119851
0.000121163
0.00012242
0.00012365
0.000124866
0.00012608
0.000127289
0.000128473
0.000129615
0.000130696
0.000131718
0.000132698
0.000133662
0.000134637
0.000135646
0.000136712
0.000137854
0.000139102
0.0001405
0.000142107
0.000143996
0.000146252
0.000149015
0.000152486
0.000156235
0.000163591
0.000168475
0.000183254
0.000193823
0.000202818
0.000202384
0.000191229
0.000188402
7.52394e-05
0.000115017
3.02914e-05
4.14271e-05
8.23751e-05
0.000123815
0.000139613
0.000160314
0.000173418
0.000156802
0.000174861
0.000129557
7.86479e-06
0.000127328
0.000351442
0.000634347
0.000659782
0.000656086
0.000655134
0.000646862
0.000635976
0.000622765
0.000607707
0.000591262
0.000573732
0.000555327
0.000536175
0.000516363
0.000495965
0.000475053
0.000453717
0.000432063
0.000410223
0.000388352
0.000366624
0.000345222
0.000324323
0.000304092
0.000284682
0.000266279
0.000248705
0.000232154
0.000216762
0.000202485
0.00018929
0.000177145
0.000166014
0.000155859
0.000146636
0.000138287
0.000130754
0.000123991
0.000117955
0.000112603
0.000107899
0.000103811
0.000100308
9.73632e-05
9.49532e-05
9.30576e-05
9.16565e-05
9.07316e-05
9.02637e-05
9.02309e-05
9.06077e-05
9.13624e-05
9.24568e-05
9.38449e-05
9.54739e-05
9.72858e-05
9.91899e-05
0.000101092
0.000103002
0.000104882
0.000106706
0.000108492
0.00011017
0.000111799
0.000113393
0.000114983
0.00011657
0.000118159
0.000119749
0.000121336
0.000122916
0.000124476
0.000125992
0.000127452
0.000128859
0.000130238
0.000131612
0.00013301
0.00013445
0.000135946
0.000137519
0.000139188
0.000140984
0.000142949
0.000145129
0.000147623
0.00015061
0.000153375
0.000159727
0.000161172
0.000171909
0.000172052
0.000176646
0.000169341
0.000154642
0.000157843
6.29973e-05
6.9229e-05
2.4076e-05
4.73922e-05
6.63779e-05
0.000179262
0.000153978
0.000204334
0.00020988
0.000180319
0.000195758
0.000147287
7.93616e-06
0.000127545
0.000350592
0.000605877
0.000603297
0.000601122
0.000598437
0.000590551
0.000580557
0.000568489
0.000554783
0.000539807
0.000523808
0.00050697
0.000489426
0.000471281
0.000452624
0.000433548
0.000414149
0.000394535
0.000374826
0.000355156
0.000335669
0.00031651
0.000297822
0.000279733
0.000262354
0.00024585
0.000230164
0.000215304
0.000201391
0.00018849
0.000176536
0.00016551
0.000155371
0.000146099
0.000137653
0.00012998
0.000123036
0.000116786
0.000111193
0.000106221
0.000101837
9.8011e-05
9.47173e-05
9.19288e-05
8.96239e-05
8.77823e-05
8.63845e-05
8.54121e-05
8.4847e-05
8.46692e-05
8.4857e-05
8.5385e-05
8.62242e-05
8.73406e-05
8.86961e-05
9.02498e-05
9.18813e-05
9.35727e-05
9.53313e-05
9.71273e-05
9.89555e-05
0.00010076
0.000102566
0.000104382
0.000106201
0.000108044
0.000109915
0.000111818
0.00011375
0.000115697
0.000117641
0.000119577
0.000121491
0.000123371
0.000125208
0.000127
0.000128765
0.000130527
0.000132303
0.000134108
0.000135953
0.000137843
0.000139788
0.000141798
0.000143873
0.000146057
0.000148515
0.000150177
0.000155294
0.000153483
0.00016047
0.000155489
0.000157165
0.000150723
0.000132866
0.000144206
4.57371e-05
2.96122e-05
1.72173e-05
5.49216e-05
5.50378e-05
0.000151014
0.000162835
0.000185806
0.000242237
0.000189572
0.000206712
0.000162113
8.01583e-06
0.000127765
0.000349755
0.000551743
0.000553173
0.000552239
0.000548421
0.000540799
0.000531453
0.000520338
0.000507793
0.000494102
0.000479463
0.000464039
0.000447958
0.000431329
0.000414252
0.000396825
0.000379146
0.000361321
0.00034346
0.000325681
0.000308105
0.000290853
0.000274038
0.000257765
0.000242127
0.000227198
0.000213122
0.000199749
0.000187127
0.000175374
0.000164513
0.000154468
0.000145206
0.000136715
0.000128949
0.000121875
0.000115458
0.000109668
0.000104473
9.98429e-05
9.57471e-05
9.21596e-05
8.90565e-05
8.64132e-05
8.42092e-05
8.24249e-05
8.10424e-05
8.00445e-05
7.94148e-05
7.91364e-05
7.91914e-05
7.95607e-05
8.02226e-05
8.11526e-05
8.23235e-05
8.37071e-05
8.51184e-05
8.66535e-05
8.82981e-05
9.00266e-05
9.18534e-05
9.3681e-05
9.55745e-05
9.75245e-05
9.95272e-05
0.000101584
0.000103696
0.000105861
0.000108076
0.000110338
0.000112633
0.000114924
0.000117208
0.000119472
0.00012171
0.00012391
0.000126073
0.000128205
0.000130315
0.000132412
0.000134501
0.000136579
0.00013864
0.000140672
0.000142627
0.000144478
0.00014637
0.000146898
0.00015062
0.000146419
0.000150614
0.000143757
0.000143029
0.000139651
0.000122055
0.000138718
2.951e-05
1.5721e-05
1.44804e-05
4.34832e-05
5.75973e-05
7.34265e-05
0.000180603
0.000150005
0.000242681
0.000185354
0.000203231
0.000170539
8.10495e-06
0.000127993
0.000349058
0.000505687
0.00050839
0.000508157
0.000503895
0.000496614
0.000487837
0.000477546
0.000466009
0.000453444
0.000440012
0.000425854
0.00041109
0.000395829
0.000380171
0.000364214
0.000348059
0.000331803
0.00031555
0.000299404
0.000283467
0.000267842
0.000252625
0.000237902
0.000223749
0.000210231
0.000197414
0.000185334
0.000173864
0.000163137
0.000153215
0.000144026
0.000135529
0.000127714
0.000120549
0.000114008
0.000108061
0.000102682
9.78452e-05
9.3523e-05
8.9688e-05
8.63178e-05
8.33902e-05
8.08832e-05
7.87778e-05
7.70557e-05
7.5701e-05
7.46984e-05
7.40337e-05
7.36934e-05
7.3664e-05
7.39314e-05
7.44803e-05
7.52936e-05
7.6352e-05
7.75958e-05
7.88528e-05
8.02713e-05
8.18276e-05
8.35004e-05
8.53128e-05
8.71821e-05
8.91416e-05
9.11877e-05
9.33279e-05
9.55561e-05
9.78735e-05
0.00010027
0.000102741
0.000105279
0.000107875
0.000110505
0.00011314
0.00011577
0.000118382
0.000120967
0.000123517
0.000126024
0.000128483
0.000130889
0.000133231
0.000135496
0.000137662
0.0001397
0.000141539
0.000143079
0.000144435
0.000143974
0.000146363
0.000140666
0.000142711
0.000135185
0.000132308
0.00013083
0.000116663
0.000139629
1.84577e-05
1.18465e-05
1.23848e-05
2.01942e-05
7.93668e-05
4.48509e-05
0.000198798
0.000106524
0.000191208
0.000168109
0.00018701
0.000174295
8.20478e-06
0.000128228
0.00034849
0.000465387
0.000468231
0.000468527
0.000464115
0.00045724
0.000449007
0.000439447
0.000428795
0.000417219
0.000404856
0.000391826
0.000378241
0.000364204
0.000349813
0.000335166
0.000320356
0.000305478
0.000290626
0.000275892
0.000261369
0.000247143
0.000233296
0.000219899
0.000207018
0.000194703
0.000182995
0.000171969
0.000161567
0.00015174
0.000142605
0.000134167
0.000126332
0.000119106
0.000112473
0.000106406
0.000100878
9.58682e-05
9.13517e-05
8.7308e-05
8.37098e-05
8.0539e-05
7.77745e-05
7.53969e-05
7.33893e-05
7.17353e-05
7.04209e-05
6.94335e-05
6.87618e-05
6.83954e-05
6.83249e-05
6.85407e-05
6.9033e-05
6.97896e-05
7.07982e-05
7.19123e-05
7.30642e-05
7.43948e-05
7.58848e-05
7.75345e-05
7.92935e-05
8.11696e-05
8.31828e-05
8.5314e-05
8.757e-05
8.99426e-05
9.24278e-05
9.50249e-05
9.77246e-05
0.000100514
0.000103384
0.000106314
0.000109276
0.000112252
0.000115226
0.000118185
0.000121113
0.000123994
0.000126811
0.000129547
0.000132175
0.00013466
0.000136958
0.000139024
0.00014078
0.000142082
0.000143002
0.000141812
0.000143026
0.000136469
0.0001365
0.000128564
0.00012277
0.000121084
0.000104048
0.000129731
1.37618e-05
8.88669e-06
2.55133e-05
1.50461e-05
4.19694e-05
3.15192e-05
8.56327e-05
0.000110724
0.000131696
0.000176938
0.000167759
0.00018041
8.31668e-06
0.00012847
0.000348047
0.000429742
0.000432289
0.000432973
0.000428524
0.000422075
0.000414363
0.000405465
0.000395595
0.000384894
0.000373476
0.000361449
0.000348915
0.000335968
0.000322705
0.000309218
0.000295595
0.000281926
0.000268298
0.000254793
0.000241493
0.000228474
0.000215806
0.000203552
0.000191766
0.000180492
0.000169765
0.000159609
0.000150116
0.000141131
0.000132678
0.000124853
0.000117602
0.000110898
0.000104737
9.90898e-05
9.39361e-05
8.9257e-05
8.503e-05
8.12379e-05
7.78565e-05
7.4869e-05
7.22574e-05
7.00046e-05
6.80953e-05
6.65164e-05