/*--------------------------------*- C++ -*----------------------------------*\
| =========                 |                                                 |
| \\      /  F ield         | OpenFOAM: The Open Source CFD Toolbox           |
|  \\    /   O peration     | Version:  v2106                                 |
|   \\  /    A nd           | Website:  www.openfoam.com                      |
|    \\/     M anipulation  |                                                 |
\*---------------------------------------------------------------------------*/
FoamFile
{
    version     2.0;
    format      ascii;
    arch        "LSB;label=32;scalar=64";
    class       volScalarField;
    location    "1.4";
    object      omega;
}
// * * * * * * * * * * * * * * * * * * * * * * * * * * * * * * * * * * * * * //

dimensions      [0 0 -1 0 0 0 0];

internalField   nonuniform List<scalar> 
29678
(
6.74275
1.45859
0.580884
0.326918
0.229767
0.186075
0.164822
0.154289
0.149191
0.146858
0.145876
0.145517
0.145427
0.145444
0.145502
0.145577
0.145656
0.145738
0.145819
0.145901
0.145981
0.146059
0.146134
0.146208
0.146279
0.146349
0.146417
0.146486
0.146556
0.14663
0.146712
0.146804
0.146911
0.147037
0.147188
0.147369
0.147585
0.147844
0.148152
0.148518
0.148949
0.149455
0.150047
0.150738
0.151547
0.152498
0.153566
0.154745
0.156075
0.157634
0.159586
0.162797
0.167159
0.171624
0.175795
0.180401
0.180901
0.180481
0.179643
0.178598
0.177708
0.176798
0.175984
0.175398
0.174863
0.174515
0.174412
0.17441
0.174416
0.174565
0.174849
0.17517
0.175825
0.176898
0.178314
0.179857
0.181491
0.182226
0.182048
0.181295
0.180545
0.179985
0.179615
0.179407
0.179423
0.179743
0.180598
0.182061
0.184324
0.18733
0.191554
0.196801
0.208521
0.231202
0.274371
0.374045
0.588032
0.898467
1.18913
1.18255
1.20936
1.16233
0.990498
0.842709
0.709713
0.608613
0.488754
0.382174
0.305026
0.346327
6.7426
1.45761
0.580429
0.326714
0.229679
0.186047
0.164832
0.154323
0.149243
0.146922
0.145951
0.145603
0.145523
0.145551
0.145621
0.145705
0.145795
0.145886
0.145976
0.146065
0.146152
0.146236
0.146318
0.146397
0.146475
0.146551
0.146629
0.146709
0.146797
0.146896
0.14701
0.147145
0.147306
0.147502
0.147738
0.148025
0.148371
0.148787
0.149284
0.149874
0.150571
0.15139
0.152349
0.153429
0.154597
0.155861
0.157235
0.158734
0.160375
0.162166
0.164135
0.16647
0.169517
0.172837
0.175181
0.176208
0.176286
0.175682
0.174812
0.173856
0.172891
0.171953
0.171065
0.170239
0.16953
0.168949
0.168396
0.167788
0.167054
0.166122
0.164942
0.163518
0.161955
0.16045
0.159289
0.158476
0.157452
0.156825
0.156821
0.157373
0.158402
0.159615
0.160948
0.162531
0.164467
0.166864
0.169856
0.173647
0.178437
0.184216
0.191141
0.198032
0.204278
0.213339
0.231234
0.279525
0.432379
0.709765
0.987666
1.04736
1.13447
1.08717
0.955854
0.819863
0.710616
0.610888
0.494791
0.385148
0.277878
0.201036
6.74278
1.45625
0.579796
0.326422
0.229545
0.185999
0.164835
0.15436
0.149303
0.146997
0.146038
0.145703
0.145636
0.145678
0.14576
0.145856
0.145956
0.146055
0.146154
0.14625
0.146343
0.146433
0.14652
0.146603
0.146685
0.146765
0.146848
0.146934
0.147029
0.147136
0.14726
0.147407
0.147582
0.147794
0.148051
0.148361
0.148735
0.149182
0.149714
0.150342
0.151082
0.151946
0.152951
0.154061
0.155255
0.156539
0.157921
0.159411
0.161028
0.162811
0.164818
0.167023
0.169137
0.170826
0.172031
0.172827
0.173184
0.172953
0.172304
0.171414
0.170413
0.169399
0.168413
0.167478
0.166663
0.16593
0.165239
0.164553
0.163826
0.163007
0.162039
0.160883
0.159539
0.158083
0.156698
0.15558
0.154814
0.15446
0.15452
0.15496
0.155764
0.156924
0.158255
0.159791
0.161622
0.163838
0.166524
0.169784
0.173693
0.178336
0.184023
0.190529
0.198233
0.207579
0.221978
0.255521
0.371731
0.622334
0.923929
1.03699
1.07697
1.00696
0.8774
0.789057
0.691392
0.604381
0.491722
0.379
0.273525
0.20083
6.74284
1.45472
0.579087
0.326094
0.229396
0.185946
0.164841
0.154401
0.149363
0.147069
0.146121
0.145797
0.145741
0.145793
0.145883
0.145985
0.146091
0.146196
0.1463
0.1464
0.146498
0.146593
0.146684
0.146772
0.146859
0.146945
0.147032
0.147125
0.147226
0.14734
0.147472
0.147626
0.147811
0.148033
0.148301
0.148623
0.149008
0.149467
0.150011
0.150651
0.1514
0.15227
0.153275
0.154386
0.155574
0.15684
0.158188
0.15962
0.161135
0.162727
0.164368
0.166023
0.167687
0.169264
0.170541
0.171336
0.171558
0.171156
0.170406
0.169507
0.1686
0.167737
0.166925
0.166208
0.16561
0.165073
0.164548
0.163986
0.163339
0.162568
0.161641
0.160543
0.159328
0.158091
0.156958
0.156066
0.155503
0.155311
0.1555
0.156071
0.157024
0.158297
0.159692
0.161297
0.163211
0.165525
0.168336
0.171767
0.175938
0.180818
0.186567
0.193106
0.200733
0.210216
0.223881
0.249669
0.344453
0.565651
0.866729
1.00048
1.02391
0.94844
0.826884
0.735594
0.649921
0.572231
0.475622
0.379009
0.288428
0.215955
6.74269
1.45309
0.578343
0.325754
0.229247
0.185901
0.164854
0.154445
0.149419
0.147133
0.146194
0.145881
0.145835
0.145893
0.145988
0.146094
0.146203
0.146311
0.146418
0.146523
0.146626
0.146725
0.146822
0.146917
0.14701
0.147104
0.1472
0.147303
0.147415
0.147541
0.147686
0.147856
0.148058
0.148298
0.148584
0.148927
0.149334
0.149815
0.150382
0.151045
0.151815
0.152703
0.153721
0.154842
0.156033
0.157292
0.158618
0.160006
0.161449
0.162932
0.164431
0.165904
0.167268
0.168408
0.169229
0.169598
0.169499
0.169105
0.16854
0.167904
0.167237
0.166551
0.165881
0.165283
0.164736
0.164207
0.163679
0.163118
0.162489
0.161758
0.160925
0.160011
0.15905
0.158095
0.157212
0.156475
0.155949
0.155682
0.155708
0.15605
0.156711
0.157687
0.158951
0.160393
0.162082
0.164091
0.166494
0.169381
0.1729
0.177152
0.182348
0.188649
0.196256
0.206137
0.21891
0.240852
0.316608
0.500283
0.789502
0.943851
0.968665
0.906942
0.777702
0.685251
0.608815
0.54357
0.459031
0.372477
0.289689
0.21969
6.74228
1.45142
0.577583
0.325416
0.229111
0.185876
0.164884
0.154491
0.149467
0.147187
0.146263
0.145964
0.145927
0.145991
0.146089
0.146198
0.146311
0.146423
0.146534
0.146644
0.146753
0.146859
0.146963
0.147065
0.147167
0.147271
0.147381
0.147498
0.147626
0.147769
0.147933
0.148123
0.148346
0.14861
0.148922
0.149292
0.149728
0.15024
0.150838
0.151533
0.152333
0.153249
0.15429
0.155429
0.156631
0.157892
0.159207
0.160568
0.161961
0.163369
0.164761
0.166099
0.16733
0.168392
0.169229
0.169747
0.169824
0.169559
0.169063
0.168429
0.167733
0.167025
0.166338
0.165744
0.165198
0.164667
0.164125
0.163542
0.162899
0.162202
0.161449
0.160647
0.15981
0.158987
0.158239
0.157628
0.157208
0.157032
0.157147
0.157576
0.158317
0.159345
0.160525
0.161904
0.163548
0.165522
0.167894
0.17074
0.174176
0.178294
0.183205
0.189212
0.196265
0.205735
0.216995
0.236158
0.29748
0.451711
0.719847
0.899981
0.931824
0.87811
0.73368
0.627033
0.557304
0.503311
0.432543
0.359991
0.288663
0.223739
6.74158
1.4497
0.576819
0.325091
0.229005
0.185887
0.164931
0.154528
0.149499
0.147234
0.146334
0.146053
0.146027
0.146097
0.146199
0.146313
0.14643
0.146547
0.146664
0.14678
0.146896
0.147009
0.147122
0.147235
0.14735
0.147469
0.147594
0.147728
0.147875
0.148039
0.148226
0.14844
0.148691
0.148984
0.149327
0.149731
0.150203
0.150753
0.151391
0.152125
0.152965
0.153918
0.15499
0.156155
0.157377
0.15865
0.159966
0.161314
0.16268
0.164041
0.165369
0.166628
0.167772
0.168751
0.169511
0.169907
0.169954
0.169738
0.169342
0.168835
0.168267
0.167674
0.167119
0.166612
0.166114
0.165603
0.165046
0.164438
0.163795
0.163118
0.162406
0.161662
0.160905
0.160167
0.159489
0.15892
0.15851
0.158313
0.158369
0.158688
0.159257
0.160074
0.161146
0.162401
0.163888
0.165672
0.167828
0.170438
0.17361
0.17751
0.182196
0.188144
0.194907
0.204464
0.214696
0.232872
0.281712
0.412158
0.654511
0.855226
0.896908
0.857323
0.691512
0.563942
0.500351
0.458112
0.400841
0.342127
0.282107
0.224168
6.74059
1.44796
0.576058
0.324793
0.228955
0.185951
0.164984
0.154537
0.149505
0.147275
0.146411
0.146155
0.146142
0.146219
0.146326
0.146445
0.146567
0.14669
0.146814
0.146938
0.147062
0.147187
0.147312
0.147438
0.147569
0.147704
0.147848
0.148002
0.148171
0.14836
0.148574
0.148819
0.149102
0.14943
0.149812
0.150257
0.150773
0.15137
0.152055
0.152839
0.153728
0.154728
0.155844
0.157045
0.158296
0.159592
0.160923
0.162276
0.163634
0.164975
0.166273
0.167495
0.168603
0.169561
0.170318
0.170755
0.170893
0.170787
0.170499
0.170085
0.16959
0.169054
0.168563
0.168083
0.16759
0.167067
0.166493
0.165884
0.165247
0.164588
0.163893
0.16317
0.16244
0.161733
0.161086
0.160542
0.160147
0.159954
0.159995
0.160268
0.160758
0.161471
0.162416
0.163554
0.164932
0.166606
0.168638
0.171105
0.174099
0.177801
0.182223
0.188042
0.194266
0.203724
0.212711
0.231048
0.268268
0.380066
0.606832
0.821698
0.872007
0.845585
0.654852
0.498959
0.440468
0.408978
0.365422
0.320667
0.272372
0.222725
6.73928
1.44619
0.57531
0.324549
0.229002
0.186069
0.165008
0.15449
0.149482
0.147315
0.146501
0.146273
0.146274
0.146359
0.146473
0.146597
0.146726
0.146857
0.146989
0.147123
0.147258
0.147395
0.147534
0.147677
0.147825
0.14798
0.148145
0.148324
0.14852
0.148739
0.148986
0.149266
0.149589
0.14996
0.150388
0.150882
0.151451
0.152103
0.152847
0.153691
0.154641
0.155701
0.156875
0.158121
0.159415
0.160747
0.162107
0.163481
0.164852
0.166198
0.167494
0.168711
0.169818
0.170784
0.171561
0.172053
0.172277
0.172273
0.172088
0.171768
0.171353
0.170908
0.170485
0.170047
0.169576
0.16906
0.168483
0.167861
0.167208
0.166515
0.165799
0.165069
0.164338
0.163633
0.162988
0.162441
0.162039
0.161827
0.161826
0.162027
0.162416
0.163002
0.163809
0.164826
0.166079
0.167619
0.169503
0.171802
0.174606
0.17809
0.18222
0.187915
0.193308
0.202714
0.21016
0.229203
0.256938
0.354529
0.581236
0.792899
0.849278
0.842347
0.627035
0.439767
0.385496
0.362245
0.330709
0.297627
0.260061
0.219302
6.73766
1.44441
0.574588
0.324399
0.22919
0.186209
0.164952
0.154372
0.149436
0.147361
0.146608
0.146411
0.146427
0.146521
0.146642
0.146773
0.14691
0.14705
0.147192
0.147338
0.147486
0.147637
0.147793
0.147954
0.148123
0.148302
0.148493
0.148701
0.148929
0.149183
0.149468
0.149792
0.15016
0.150582
0.151065
0.151618
0.15225
0.152969
0.153784
0.154701
0.155726
0.156862
0.158106
0.159412
0.16076
0.162143
0.163548
0.164961
0.166365
0.167738
0.169057
0.170295
0.171425
0.172422
0.173248
0.173819
0.17414
0.174242
0.174161
0.173932
0.173596
0.173247
0.172885
0.172481
0.172027
0.171516
0.170931
0.170288
0.16961
0.168895
0.16815
0.167388
0.166628
0.165895
0.165221
0.164645
0.16421
0.163956
0.163893
0.164008
0.164292
0.164756
0.165423
0.166311
0.167434
0.168832
0.170551
0.172652
0.175202
0.178353
0.18193
0.187249
0.191858
0.200625
0.20686
0.225239
0.249052
0.334698
0.570411
0.755142
0.816188
0.848394
0.609786
0.394583
0.342185
0.324541
0.301513
0.276274
0.246815
0.214296
6.73573
1.44261
0.573914
0.324394
0.229533
0.18631
0.164771
0.154178
0.14938
0.147424
0.146737
0.146571
0.146603
0.146706
0.146835
0.146975
0.14712
0.147271
0.147425
0.147584
0.147748
0.147917
0.148092
0.148275
0.148469
0.148675
0.148897
0.149138
0.149404
0.149699
0.150031
0.150404
0.150828
0.151309
0.151857
0.152481
0.153188
0.153987
0.154886
0.155892
0.157009
0.158239
0.159567
0.160945
0.162364
0.163813
0.165281
0.166752
0.168208
0.16963
0.170993
0.172274
0.173448
0.174492
0.175384
0.176052
0.17648
0.176691
0.176711
0.176574
0.176319
0.176073
0.175774
0.175407
0.174972
0.174469
0.173892
0.17324
0.172518
0.171755
0.170961
0.170149
0.169338
0.168552
0.167822
0.16719
0.166696
0.166371
0.166222
0.166237
0.16641
0.166752
0.167284
0.168032
0.169015
0.170257
0.17179
0.173661
0.175944
0.178825
0.182083
0.187001
0.191129
0.198928
0.20459
0.221898
0.244914
0.32073
0.570212
0.710091
0.774887
0.863154
0.601287
0.364798
0.311886
0.299012
0.280078
0.258941
0.234185
0.207879
6.73347
1.44081
0.573321
0.324597
0.229957
0.18629
0.164431
0.153943
0.149347
0.147517
0.146893
0.146757
0.146804
0.146917
0.147055
0.147204
0.14736
0.147523
0.147692
0.147867
0.148048
0.148238
0.148436
0.148645
0.148867
0.149105
0.149363
0.149644
0.149954
0.150298
0.150683
0.151116
0.151604
0.152156
0.152781
0.153488
0.154284
0.155179
0.15618
0.157293
0.158522
0.159866
0.161287
0.162755
0.164261
0.165795
0.167344
0.168892
0.170422
0.171912
0.173341
0.174685
0.17592
0.177026
0.177983
0.178762
0.179307
0.17963
0.179754
0.179707
0.179578
0.179417
0.179177
0.178847
0.178432
0.177934
0.177359
0.176705
0.175956
0.175136
0.174275
0.173393
0.17251
0.17165
0.170841
0.170125
0.169541
0.169116
0.168855
0.168752
0.168803
0.169021
0.169423
0.170032
0.170869
0.171956
0.173324
0.175019
0.177115
0.179788
0.182823
0.187366
0.191175
0.198039
0.203642
0.219951
0.243938
0.312599
0.576683
0.674545
0.74361
0.886376
0.600392
0.347088
0.290873
0.278028
0.261757
0.245235
0.223973
0.200983
6.73088
1.43901
0.572854
0.325123
0.230353
0.186001
0.163975
0.153735
0.149351
0.147641
0.147077
0.14697
0.147032
0.147156
0.147304
0.147464
0.147633
0.14781
0.147995
0.148189
0.148391
0.148604
0.148829
0.149068
0.149324
0.149599
0.149899
0.150227
0.150588
0.150989
0.151437
0.151939
0.152504
0.153139
0.153855
0.15466
0.155563
0.156573
0.157696
0.158938
0.160302
0.161774
0.163303
0.164879
0.166491
0.16813
0.169781
0.171428
0.173052
0.174634
0.176149
0.177574
0.178887
0.180066
0.181095
0.18196
0.182632
0.183075
0.183307
0.183357
0.183363
0.183298
0.183125
0.182838
0.182444
0.18195
0.181373
0.180705
0.179948
0.179088
0.178153
0.17718
0.176201
0.175242
0.17433
0.173504
0.1728
0.172245
0.171846
0.171603
0.171518
0.171603
0.171875
0.172351
0.173052
0.174003
0.175235
0.176792
0.17875
0.181268
0.184135
0.188339
0.191943
0.198038
0.204112
0.219774
0.245942
0.31079
0.583093
0.656433
0.727605
0.908985
0.604886
0.338076
0.274546
0.257948
0.242442
0.229325
0.214147
0.194245
6.72796
1.43721
0.572513
0.326043
0.230532
0.185455
0.163497
0.15357
0.149394
0.1478
0.147292
0.147212
0.14729
0.147425
0.147585
0.147758
0.147942
0.148136
0.14834
0.148555
0.148782
0.149022
0.149278
0.149552
0.149847
0.150166
0.150514
0.150896
0.151317
0.151786
0.152307
0.152891
0.153545
0.154279
0.155102
0.156024
0.157053
0.158199
0.159469
0.160867
0.162392
0.163994
0.165652
0.167357
0.169098
0.170864
0.172641
0.174411
0.176154
0.177848
0.17947
0.180996
0.182403
0.183668
0.184775
0.185711
0.186469
0.187041
0.18739
0.187553
0.187713
0.187756
0.187658
0.187421
0.187053
0.186568
0.185983
0.185294
0.184508
0.183625
0.182642
0.181575
0.180476
0.179389
0.178348
0.177385
0.176533
0.17582
0.175259
0.174854
0.174614
0.174552
0.174684
0.175027
0.1756
0.176432
0.177554
0.179011
0.180881
0.183298
0.186033
0.189922
0.19343
0.199077
0.206134
0.221044
0.248552
0.313861
0.58754
0.65311
0.722406
0.925443
0.618548
0.338108
0.264611
0.244749
0.22855
0.21573
0.203629
0.188336
6.72473
1.43539
0.572241
0.327218
0.230485
0.184741
0.163055
0.153453
0.14948
0.147994
0.14754
0.147486
0.147579
0.147728
0.147901
0.148089
0.14829
0.148503
0.148729
0.148969
0.149225
0.149497
0.149789
0.150103
0.150443
0.150813
0.151217
0.151662
0.152154
0.1527
0.153309
0.153988
0.154747
0.155597
0.156547
0.157608
0.158788
0.160097
0.161542
0.163127
0.164816
0.166568
0.168377
0.170235
0.172131
0.174051
0.175981
0.177899
0.179787
0.181619
0.183371
0.185017
0.186533
0.187897
0.189091
0.190102
0.190924
0.191555
0.192001
0.192364
0.192669
0.192828
0.19282
0.192644
0.19231
0.191842
0.191246
0.190531
0.189703
0.18877
0.187742
0.186622
0.185412
0.184175
0.18297
0.18184
0.180814
0.179918
0.179168
0.178576
0.178158
0.17793
0.177908
0.17811
0.178558
0.179279
0.180312
0.181703
0.18353
0.185907
0.188545
0.192209
0.195701
0.20134
0.208978
0.222848
0.25054
0.317212
0.588671
0.658204
0.723003
0.938553
0.638865
0.348999
0.260422
0.236954
0.218843
0.205441
0.193842
0.182842
6.72118
1.43357
0.572086
0.328265
0.230335
0.184028
0.162669
0.153388
0.14961
0.148226
0.147822
0.147794
0.147904
0.148067
0.148255
0.148461
0.148681
0.148916
0.149168
0.149437
0.149725
0.150035
0.150368
0.150729
0.151122
0.15155
0.15202
0.152538
0.153112
0.153749
0.154459
0.15525
0.156134
0.15712
0.158221
0.159447
0.160807
0.162312
0.163967
0.165751
0.167609
0.169537
0.171526
0.173566
0.175645
0.17775
0.179862
0.18196
0.184021
0.186019
0.187925
0.189712
0.191356
0.192832
0.194123
0.195216
0.196104
0.196785
0.197272
0.197759
0.198195
0.198498
0.198621
0.198536
0.198259
0.197822
0.197224
0.19648
0.195602
0.194604
0.193503
0.192311
0.191035
0.189674
0.188289
0.186955
0.185723
0.184616
0.183653
0.18285
0.182228
0.181806
0.18161
0.181657
0.181971
0.182584
0.183537
0.184882
0.186693
0.189054
0.191584
0.195143
0.198549
0.204259
0.211967
0.225973
0.254697
0.321754
0.572836
0.66174
0.72138
0.95373
0.663375
0.36552
0.260407
0.232009
0.210988
0.195944
0.183029
0.177126
6.71727
1.43183
0.572298
0.328977
0.23
0.183343
0.162343
0.153376
0.149785
0.148498
0.148141
0.148139
0.148267
0.148446
0.148652
0.148876
0.149119
0.14938
0.149661
0.149963
0.150289
0.150641
0.151023
0.151438
0.151891
0.152388
0.152934
0.153538
0.154207
0.15495
0.155779
0.156702
0.157732
0.15888
0.160159
0.161582
0.163156
0.164895
0.166782
0.168759
0.170816
0.172948
0.175148
0.177403
0.1797
0.182024
0.184354
0.186666
0.188933
0.191126
0.193214
0.195167
0.196959
0.198566
0.199968
0.201153
0.202113
0.202847
0.20339
0.204006
0.204524
0.204877
0.205045
0.205028
0.204843
0.204503
0.203947
0.203193
0.202269
0.201199
0.200005
0.198708
0.197332
0.195885
0.194365
0.192826
0.191351
0.189996
0.188791
0.187754
0.186903
0.186264
0.185866
0.185735
0.185898
0.186392
0.187261
0.188558
0.190335
0.192637
0.195011
0.198588
0.201867
0.207899
0.215731
0.231179
0.260784
0.326877
0.539479
0.6563
0.710507
0.970392
0.687848
0.383028
0.262923
0.228655
0.20463
0.187072
0.173859
0.169146
6.713
1.43025
0.573276
0.329176
0.229293
0.182659
0.16208
0.15342
0.150006
0.148811
0.1485
0.148523
0.14867
0.148868
0.149093
0.14934
0.149609
0.149899
0.150214
0.150554
0.150924
0.151325
0.151762
0.152239
0.152763
0.153338
0.153973
0.154676
0.155455
0.156323
0.157291
0.158369
0.159572
0.160912
0.162403
0.164059
0.165891
0.167891
0.169995
0.172193
0.17448
0.176851
0.179298
0.181806
0.18436
0.186943
0.189531
0.192095
0.194606
0.19703
0.199333
0.201482
0.203449
0.205209
0.206741
0.208032
0.209074
0.20987
0.210564
0.211283
0.211877
0.21228
0.21247
0.212446
0.212239
0.21185
0.211287
0.21056
0.209685
0.208611
0.207327
0.205907
0.204387
0.202797
0.201158
0.199479
0.197784
0.196159
0.194674
0.193368
0.192262
0.191384
0.19076
0.190423
0.190409
0.190759
0.191524
0.192746
0.194432
0.196628
0.198846
0.202626
0.205914
0.212711
0.220773
0.238458
0.268055
0.333541
0.499227
0.63891
0.70192
0.973036
0.715128
0.396909
0.268613
0.227215
0.201004
0.181318
0.168256
0.162957
6.70836
1.42879
0.575099
0.328802
0.228179
0.181998
0.161882
0.153521
0.150276
0.149167
0.1489
0.14895
0.149118
0.149336
0.149584
0.149856
0.150154
0.150479
0.150832
0.151216
0.151635
0.152092
0.152593
0.153142
0.153747
0.154414
0.155151
0.15597
0.156878
0.157891
0.159022
0.160283
0.161689
0.163256
0.165001
0.166936
0.169055
0.171292
0.173639
0.176092
0.178646
0.181295
0.184029
0.186833
0.18969
0.192578
0.19547
0.198334
0.201134
0.203832
0.20639
0.208773
0.210948
0.21289
0.214578
0.215996
0.217137
0.218012
0.218885
0.219738
0.220428
0.22089
0.221104
0.221074
0.220836
0.22038
0.219724
0.21888
0.217871
0.216714
0.215428
0.213981
0.212313
0.210536
0.208706
0.206851
0.204985
0.203141
0.201382
0.199779
0.198387
0.197238
0.196363
0.195797
0.195577
0.195749
0.196369
0.197456
0.198983
0.201083
0.203206
0.207365
0.210778
0.218608
0.226918
0.24716
0.276845
0.343455
0.478548
0.639905
0.73675
0.957057
0.748809
0.401978
0.278015
0.228054
0.201574
0.179287
0.166245
0.15972
6.70336
1.42734
0.576944
0.32831
0.227028
0.181396
0.161749
0.153679
0.150594
0.149568
0.149345
0.149421
0.149612
0.149853
0.150126
0.150429
0.15076
0.151123
0.15152
0.151954
0.15243
0.152952
0.153526
0.154158
0.154855
0.155628
0.156485
0.157437
0.158498
0.15968
0.161001
0.162477
0.164125
0.165961
0.168006
0.17025
0.172625
0.175124
0.177748
0.180493
0.183354
0.186324
0.189393
0.192545
0.195758
0.199008
0.202262
0.205482
0.208626
0.21165
0.214512
0.217174
0.2196
0.221764
0.223642
0.225218
0.226483
0.227477
0.228568
0.229586
0.230392
0.230926
0.231168
0.231137
0.230856
0.230322
0.229549
0.228556
0.227367
0.22601
0.224515
0.222906
0.221199
0.219234
0.217158
0.215048
0.212943
0.210871
0.208871
0.207005
0.205325
0.203884
0.202732
0.201911
0.201456
0.201408
0.201808
0.202675
0.204007
0.206051
0.208148
0.212786
0.216354
0.225347
0.234009
0.256831
0.286971
0.35752
0.509293
0.731662
0.883551
0.945875
0.786101
0.4038
0.288941
0.231188
0.205711
0.180746
0.167131
0.159121
6.69801
1.42589
0.578635
0.327831
0.225945
0.180868
0.161683
0.153895
0.150963
0.150015
0.149835
0.14994
0.150155
0.150423
0.150726
0.151061
0.151431
0.151838
0.152285
0.152776
0.153317
0.153912
0.15457
0.155297
0.156102
0.156997
0.157991
0.1591
0.160337
0.161718
0.163262
0.164991
0.166924
0.169079
0.17145
0.173963
0.176616
0.179412
0.18235
0.185429
0.188643
0.191986
0.195446
0.199007
0.202643
0.206324
0.21001
0.213655
0.217209
0.220623
0.22385
0.226849
0.229583
0.232021
0.234136
0.235909
0.237334
0.238557
0.239882
0.241086
0.242028
0.242648
0.242923
0.242895
0.242563
0.241932
0.24102
0.239847
0.238439
0.236829
0.235052
0.233147
0.231155
0.229027
0.22668
0.224245
0.221809
0.219421
0.217123
0.214965
0.212996
0.21127
0.209837
0.20874
0.208014
0.207688
0.207797
0.208397
0.209534
0.211546
0.213657
0.218801
0.222549
0.232817
0.241991
0.267521
0.298655
0.379476
0.61478
0.921758
1.1348
0.99584
0.78055
0.419089
0.295263
0.239629
0.211509
0.184848
0.169945
0.160374
6.6923
1.42443
0.580183
0.327372
0.224936
0.180417
0.161687
0.154168
0.151383
0.150511
0.150373
0.150509
0.150752
0.151048
0.151384
0.151758
0.152171
0.152628
0.153132
0.153688
0.154302
0.154982
0.155735
0.156571
0.1575
0.158535
0.15969
0.16098
0.162422
0.164037
0.165843
0.167869
0.170136
0.172628
0.175275
0.178078
0.181042
0.184171
0.187466
0.190926
0.19455
0.198328
0.202253
0.206302
0.210445
0.214641
0.218843
0.222994
0.227037
0.230919
0.23459
0.238003
0.241117
0.243897
0.24631
0.248333
0.249963
0.251509
0.253112
0.254538
0.255643
0.256364
0.256681
0.256658
0.256265
0.255518
0.254433
0.25304
0.251369
0.249452
0.247331
0.245052
0.242665
0.240167
0.237472
0.234643
0.23178
0.228966
0.226262
0.223721
0.221391
0.219323
0.217562
0.216149
0.215123
0.214505
0.21432
0.214649
0.21559
0.217557
0.219699
0.22532
0.229328
0.240967
0.250962
0.279579
0.313228
0.411714
0.798862
1.16459
1.36327
1.28612
0.799205
0.449538
0.304912
0.249437
0.218492
0.190094
0.173982
0.162673
6.68622
1.42297
0.581596
0.326936
0.224009
0.180048
0.16176
0.154501
0.151854
0.151056
0.150962
0.15113
0.151403
0.151733
0.152106
0.152523
0.152985
0.153498
0.154066
0.154696
0.155394
0.15617
0.157032
0.157993
0.159065
0.160262
0.161601
0.163101
0.164783
0.166671
0.168788
0.171157
0.173761
0.176532
0.179475
0.182599
0.18591
0.189414
0.193116
0.197019
0.201123
0.205421
0.209901
0.214536
0.219286
0.224099
0.228916
0.233671
0.238304
0.242754
0.246969
0.250896
0.254487
0.257697
0.260485
0.26282
0.264718
0.266666
0.268613
0.27031
0.271612
0.272451
0.272833
0.272801
0.272329
0.271436
0.270143
0.268481
0.266486
0.264199
0.261665
0.258934
0.256063
0.253026
0.249812
0.246463
0.243063
0.239708
0.236477
0.233434
0.230634
0.228126
0.225954
0.224159
0.222785
0.221859
0.221395
0.221461
0.222192
0.224061
0.226235
0.232241
0.23666
0.249698
0.261102
0.29338
0.333825
0.460636
1.08516
1.2404
1.43154
1.45963
0.935677
0.492547
0.329686
0.262424
0.226228
0.19586
0.178177
0.165331
6.67977
1.42152
0.582869
0.326522
0.223166
0.179762
0.161904
0.154893
0.152379
0.151653
0.151603
0.151805
0.152112
0.152479
0.152894
0.153359
0.153877
0.154453
0.155094
0.155807
0.156601
0.157485
0.158472
0.159575
0.16081
0.162194
0.163746
0.165491
0.167452
0.169658
0.172131
0.174831
0.177704
0.180771
0.184041
0.187521
0.191222
0.195156
0.199332
0.203758
0.208436
0.213358
0.218508
0.223848
0.229325
0.234873
0.240424
0.245907
0.251256
0.256408
0.261301
0.265875
0.270067
0.273817
0.277073
0.279795
0.282053
0.284491
0.286851
0.288873
0.290407
0.291378
0.291841
0.291789
0.291212
0.290133
0.28858
0.286584
0.284191
0.28145
0.278413
0.275136
0.271661
0.267939
0.264032
0.259999
0.255918
0.251884
0.247987
0.244307
0.240907
0.237842
0.235155
0.232889
0.231087
0.229798
0.229042
0.228841
0.229333
0.231021
0.233212
0.239423
0.244454
0.258674
0.272523
0.308044
0.360132
0.531606
1.37963
1.38198
1.47658
1.47582
1.14437
0.481326
0.361532
0.267479
0.235435
0.200122
0.181786
0.167747
6.67292
1.4202
0.583912
0.326086
0.222407
0.179558
0.162116
0.155344
0.152958
0.152301
0.152296
0.152536
0.15288
0.153288
0.153751
0.15427
0.15485
0.155498
0.15622
0.157027
0.157928
0.158936
0.160065
0.161331
0.162752
0.16435
0.166149
0.168176
0.170461
0.173026
0.17581
0.178779
0.181946
0.185333
0.188964
0.192846
0.196996
0.201433
0.20617
0.211222
0.216592
0.222269
0.228225
0.234408
0.240752
0.247179
0.253614
0.259986
0.266223
0.272255
0.278007
0.283399
0.288349
0.292774
0.296602
0.299789
0.302595
0.305587
0.30842
0.310818
0.312617
0.31374
0.314293
0.314205
0.31349
0.312169
0.310279
0.307861
0.304971
0.301666
0.29801
0.294068
0.289816
0.285255
0.280485
0.27559
0.270654
0.265774
0.261049
0.256572
0.252419
0.248654
0.245326
0.242476
0.240148
0.238397
0.237277
0.236783
0.236992
0.238398
0.240553
0.246714
0.252544
0.267403
0.284721
0.322124
0.387173
0.597235
1.44275
1.53457
1.60264
1.6563
1.15055
0.531335
0.370181
0.276358
0.238465
0.203455
0.183744
0.169554
6.66564
1.41974
0.584252
0.325394
0.221723
0.179437
0.162397
0.155853
0.15359
0.153003
0.153044
0.153323
0.153709
0.154164
0.154679
0.155258
0.155908
0.156635
0.157449
0.158362
0.159384
0.160532
0.161822
0.163272
0.164906
0.16675
0.168832
0.171184
0.173823
0.176673
0.179719
0.182978
0.186471
0.190215
0.194248
0.198594
0.203271
0.208304
0.213715
0.219523
0.225728
0.232314
0.239235
0.246425
0.253803
0.261291
0.26881
0.276289
0.283648
0.290799
0.297642
0.30407
0.309968
0.315224
0.319738
0.323466
0.326963
0.330613
0.334012
0.336854
0.338959
0.340288
0.340921
0.340776
0.339872
0.338234
0.335907
0.332952
0.329431
0.325418
0.32099
0.316196
0.310947
0.305356
0.299536
0.293587
0.287604
0.28169
0.275953
0.270497
0.265412
0.260776
0.256644
0.253066
0.250082
0.247744
0.246135
0.245269
0.245139
0.246153
0.248167
0.253984
0.260752
0.275614
0.296471
0.335178
0.410435
0.639322
1.35985
1.43665
1.74607
1.72104
1.05678
0.585926
0.357675
0.288459
0.236043
0.20673
0.184365
0.17092
6.65784
1.42065
0.583567
0.324277
0.221103
0.179398
0.162745
0.15642
0.154275
0.153756
0.153846
0.154168
0.1546
0.155105
0.155679
0.156326
0.157052
0.157869
0.158786
0.159816
0.160975
0.16228
0.163751
0.165412
0.167289
0.169413
0.171818
0.174509
0.177404
0.180505
0.183834
0.187413
0.191269
0.195429
0.199923
0.204808
0.21011
0.215856
0.222079
0.228799
0.236012
0.243685
0.251758
0.260148
0.268777
0.277568
0.286444
0.295328
0.30412
0.312702
0.320936
0.328673
0.335755
0.342021
0.34734
0.351677
0.355999
0.360421
0.364475
0.367826
0.370269
0.371859
0.372575
0.372353
0.371203
0.369163
0.366285
0.362644
0.358322
0.353413
0.348016
0.342067
0.335565
0.328693
0.321587
0.314363
0.307124
0.299976
0.293027
0.28639
0.280169
0.274457
0.269325
0.264831
0.261023
0.257945
0.25568
0.254292
0.253748
0.254256
0.255968
0.26121
0.268783
0.283327
0.306983
0.347384
0.430214
0.663944
1.21524
1.24736
1.8342
1.66272
0.973589
0.578523
0.34177
0.297954
0.235857
0.209749
0.185382
0.171816
6.64959
1.42181
0.582608
0.323093
0.220559
0.179436
0.163158
0.157042
0.155012
0.154562
0.154701
0.15507
0.155552
0.156113
0.156752
0.157473
0.158285
0.159201
0.160232
0.161394
0.162706
0.164187
0.165863
0.167761
0.169913
0.172353
0.175072
0.177992
0.181126
0.184501
0.188143
0.192083
0.196355
0.200996
0.206046
0.211554
0.217597
0.224199
0.2314
0.239217
0.247636
0.256605
0.26605
0.27589
0.286057
0.296484
0.307092
0.317781
0.328418
0.338848
0.348886
0.358356
0.366984
0.374542
0.380866
0.38591
0.391133
0.396295
0.400938
0.404801
0.407574
0.40943
0.410212
0.409881
0.408432
0.405902
0.40235
0.39786
0.392538
0.38651
0.379877
0.37242
0.36433
0.355844
0.347142
0.338361
0.329614
0.321002
0.312627
0.304613
0.297031
0.290005
0.283635
0.277994
0.273141
0.269124
0.266011
0.263894
0.262801
0.2627
0.263921
0.268437
0.276354
0.290664
0.316116
0.358852
0.448049
0.679958
1.13832
1.17163
1.90143
1.47981
0.879565
0.528331
0.346203
0.298539
0.238619
0.211863
0.186982
0.172679
6.64089
1.423
0.581538
0.321924
0.220097
0.179551
0.163633
0.157718
0.1558
0.155417
0.155609
0.156029
0.156564
0.157188
0.157897
0.1587
0.159607
0.160632
0.16179
0.163099
0.16458
0.166259
0.168164
0.170329
0.172786
0.175509
0.178432
0.181578
0.184975
0.188654
0.192651
0.197004
0.201758
0.206962
0.212667
0.218931
0.225833
0.233463
0.241837
0.250966
0.260819
0.27133
0.282426
0.29405
0.306153
0.318674
0.331517
0.344559
0.357651
0.370631
0.383394
0.396074
0.408295
0.419337
0.428348
0.434993
0.441119
0.446082
0.449589
0.451678
0.452825
0.453854
0.45445
0.454246
0.452555
0.449433
0.445069
0.439571
0.433063
0.425681
0.41751
0.408183
0.398083
0.387549
0.376836
0.366123
0.355596
0.345253
0.335194
0.325524
0.316335
0.307748
0.299879
0.292823
0.286659
0.281449
0.277262
0.274171
0.272329
0.271487
0.272041
0.275701
0.283381
0.297635
0.324015
0.369768
0.465453
0.698013
1.11737
1.16002
1.88355
1.33983
0.80554
0.486788
0.355924
0.296113
0.242423
0.21327
0.188413
0.173819
6.63175
1.42416
0.580421
0.320804
0.21972
0.179739
0.164167
0.158445
0.156635
0.156321
0.156568
0.157041
0.157636
0.158326
0.159113
0.160006
0.161017
0.162162
0.163459
0.16493
0.1666
0.168499
0.17066
0.173115
0.175819
0.178724
0.181859
0.185255
0.188946
0.19297
0.197372
0.202202
0.207516
0.213377
0.219854
0.227024
0.234963
0.243793
0.253568
0.264256
0.275809
0.288165
0.301289
0.315157
0.329741
0.344983
0.360792
0.377116
0.394275
0.413405
0.435266
0.460038
0.486592
0.511971
0.532271
0.545341
0.552185
0.552942
0.548213
0.538914
0.528737
0.520855
0.514599
0.509394
0.504625
0.499908
0.494833
0.488583
0.480806
0.471884
0.461978
0.450456
0.437876
0.424768
0.411573
0.398462
0.38563
0.373145
0.361078
0.34949
0.338448
0.328049
0.318407
0.309642
0.301863
0.295157
0.289613
0.285285
0.282417
0.280636
0.280393
0.283024
0.289946