/*--------------------------------*- C++ -*----------------------------------*\
| =========                 |                                                 |
| \\      /  F ield         | OpenFOAM: The Open Source CFD Toolbox           |
|  \\    /   O peration     | Version:  v2106                                 |
|   \\  /    A nd           | Website:  www.openfoam.com                      |
|    \\/     M anipulation  |                                                 |
\*---------------------------------------------------------------------------*/
FoamFile
{
    version     2.0;
    format      ascii;
    arch        "LSB;label=32;scalar=64";
    class       volScalarField;
    location    "1.4";
    object      p;
}
// * * * * * * * * * * * * * * * * * * * * * * * * * * * * * * * * * * * * * //

dimensions      [1 -1 -2 0 0 0 0];

internalField   nonuniform List<scalar> 
29678
(
14642.1
14495
14347.8
14200.7
14053.5
13906.3
13759.2
13612
13464.9
13317.7
13170.5
13023.4
12876.2
12729
12581.9
12434.7
12287.5
12140.3
11993.1
11846
11698.8
11551.6
11404.4
11257.2
11110
10962.8
10815.6
10668.3
10521.1
10373.9
10226.7
10079.4
9932.17
9784.91
9637.65
9490.38
9343.1
9195.81
9048.5
8901.17
8753.83
8606.46
8459.06
8311.6
8164.09
8016.46
7868.65
7720.48
7571.51
7420.65
7265.63
7102.23
6933.97
6753.02
6580.31
6420.39
6267.14
6116.63
5967.43
5818.98
5671
5523.36
5375.97
5228.78
5081.75
4934.88
4788.13
4641.49
4494.93
4348.4
4201.87
4055.26
3908.54
3761.61
3614.48
3467.15
3319.7
3172.17
3024.67
2877.27
2730.05
2583.06
2436.33
2289.88
2143.74
1997.91
1852.38
1707.1
1562
1416.85
1271.28
1124.25
973.462
822.705
675.58
527.285
376.563
224.831
72.3406
0.200656
-0.0723204
-0.27348
-0.487274
-0.66712
-0.859853
-1.03913
-1.22268
-1.40224
-1.58323
-1.76483
14643.4
14496.3
14349.1
14202
14054.8
13907.6
13760.5
13613.3
13466.1
13318.9
13171.7
13024.5
12877.3
12730.1
12582.9
12435.7
12288.5
12141.2
11994
11846.7
11699.5
11552.2
11404.9
11257.6
11110.3
10963
10815.7
10668.3
10520.9
10373.6
10226.2
10078.7
9931.3
9783.84
9636.36
9488.84
9341.3
9193.72
9046.1
8898.43
8750.71
8602.91
8455.02
8307
8158.82
8010.41
7861.66
7712.42
7562.51
7411.91
7260.68
7108.57
6939.33
6763.54
6591.6
6430.77
6275.56
6123.45
5973.05
5823.64
5674.87
5526.57
5378.63
5230.96
5083.51
4936.25
4789.16
4642.2
4495.35
4348.57
4201.8
4055
3908.11
3761.09
3613.9
3466.52
3319.02
3171.53
3024.06
2876.7
2729.49
2582.47
2435.67
2289.11
2142.8
1996.75
1850.95
1705.38
1559.98
1414.66
1269.01
1122.48
973.159
822.258
674.5
526.421
376.456
225.657
73.2219
0.352892
-0.0466841
-0.25527
-0.479314
-0.663825
-0.855116
-1.03603
-1.21891
-1.39927
-1.5804
-1.7623
14644.8
14497.6
14350.5
14203.3
14056.1
13908.9
13761.8
13614.6
13467.4
13320.1
13172.9
13025.7
12878.5
12731.2
12584
12436.7
12289.4
12142.1
11994.8
11847.5
11700.2
11552.8
11405.4
11258
11110.6
10963.2
10815.7
10668.3
10520.8
10373.2
10225.7
10078.1
9930.45
9782.78
9635.08
9487.33
9339.52
9191.66
9043.74
8895.74
8747.64
8599.43
8451.07
8302.53
8153.75
8004.65
7855.1
7704.92
7553.85
7401.4
7246.57
7087.95
6924.99
6760.89
6598.42
6439.71
6284.2
6131.03
5979.46
5829
5679.38
5530.39
5381.85
5233.67
5085.77
4938.1
4790.63
4643.32
4496.14
4349.03
4201.97
4054.92
3907.84
3760.7
3613.48
3466.21
3318.94
3171.66
3024.43
2877.29
2730.29
2583.45
2436.79
2290.32
2144.05
1997.95
1852.01
1706.14
1560.25
1414.14
1267.7
1120.58
972.425
823.812
675.821
527.375
377.95
227.679
75.2745
0.808588
-0.0673914
-0.279693
-0.476997
-0.663993
-0.851457
-1.03436
-1.21696
-1.39854
-1.58008
-1.76181
14646.1
14499
14351.8
14204.6
14057.4
13910.3
13763
13615.8
13468.6
13321.4
13174.1
13026.9
12879.6
12732.3
12585
12437.7
12290.4
12143
11995.7
11848.3
11700.9
11553.4
11406
11258.5
11111
10963.5
10815.9
10668.3
10520.6
10372.9
10225.2
10077.4
9929.63
9781.76
9633.84
9485.85
9337.8
9189.67
9041.44
8893.12
8744.67
8596.07
8447.29
8298.28
8148.98
7999.31
7849.14
7698.31
7546.58
7393.67
7239.24
7083.04
6924.4
6764.04
6603.89
6445.81
6290.13
6136.42
5984.23
5833.16
5682.94
5533.39
5384.36
5235.74
5087.45
4939.44
4791.65
4644.05
4496.59
4349.25
4201.98
4054.74
3907.52
3760.28
3613.01
3465.72
3318.43
3171.16
3023.95
2876.82
2729.81
2582.94
2436.22
2289.67
2143.28
1997.05
1850.94
1704.9
1558.85
1412.68
1266.25
1119.36
971.875
823.947
675.984
527.805
379.017
229.606
78.7289
2.47334
-0.111907
-0.301705
-0.486646
-0.668831
-0.852831
-1.03462
-1.21631
-1.39752
-1.57869
-1.76006
14647.5
14500.3
14353.2
14206
14058.8
13911.6
13764.4
13617.1
13469.9
13322.6
13175.4
13028.1
12880.8
12733.5
12586.1
12438.8
12291.4
12144
11996.6
11849.1
11701.6
11554.1
11406.6
11259
11111.4
10963.7
10816
10668.3
10520.5
10372.7
10224.8
10076.9
9928.86
9780.79
9632.66
9484.45
9336.14
9187.75
9039.24
8890.61
8741.84
8592.89
8443.72
8294.3
8144.57
7994.44
7843.82
7692.55
7540.48
7387.4
7233.11
7077.45
6920.22
6762.15
6604.5
6448.13
6293.27
6139.8
5987.53
5836.22
5685.71
5535.82
5386.46
5237.51
5088.91
4940.6
4792.55
4644.7
4497.01
4349.46
4202
4054.61
3907.27
3759.95
3612.65
3465.37
3318.13
3170.95
3023.84
2876.83
2729.92
2583.14
2436.5
2289.99
2143.62
1997.35
1851.17
1705.03
1558.85
1412.54
1266.04
1119.25
972.135
824.769
677.291
529.621
381.581
233.187
84.3153
5.38477
-0.136805
-0.317159
-0.49529
-0.674031
-0.855351
-1.03591
-1.21667
-1.39732
-1.578
-1.75878
14648.9
14501.7
14354.5
14207.3
14060.1
13912.9
13765.7
13618.4
13471.2
13323.9
13176.6
13029.3
12882
12734.6
12587.2
12439.8
12292.4
12144.9
11997.5
11849.9
11702.4
11554.8
11407.2
11259.5
11111.8
10964
10816.2
10668.4
10520.5
10372.5
10224.4
10076.3
9928.15
9779.9
9631.55
9483.12
9334.58
9185.93
9037.16
8888.24
8739.16
8589.89
8440.39
8290.62
8140.52
7990.04
7839.09
7687.55
7535.33
7382.29
7228.34
7073.46
6917.73
6761.59
6605.62
6450.34
6296.02
6142.72
5990.38
5838.85
5688.04
5537.85
5388.19
5238.95
5090.09
4941.53
4793.24
4645.16
4497.27
4349.53
4201.91
4054.39
3906.93
3759.54
3612.19
3464.89
3317.65
3170.47
3023.38
2876.37
2729.47
2582.68
2436.01
2289.46
2143.03
1996.7
1850.44
1704.24
1558.03
1411.75
1265.36
1118.82
972.103
825.237
678.274
531.21
383.965
236.568
89.3001
8.10739
-0.148683
-0.324653
-0.501877
-0.678692
-0.85826
-1.03762
-1.2174
-1.39732
-1.57737
-1.75752
14650.2
14503.1
14355.9
14208.7
14061.5
13914.2
13767
13619.7
13472.5
13325.2
13177.9
13030.5
12883.2
12735.8
12588.4
12440.9
12293.4
12145.9
11998.4
11850.8
11703.2
11555.5
11407.8
11260.1
11112.3
10964.4
10816.5
10668.5
10520.5
10372.3
10224.1
10075.9
9927.52
9779.08
9630.54
9481.89
9333.12
9184.23
9035.2
8886.02
8736.67
8587.11
8437.31
8287.24
8136.85
7986.1
7834.91
7683.21
7530.94
7378.03
7224.45
7070.22
6915.47
6760.48
6605.6
6451.16
6297.37
6144.36
5992.11
5840.56
5689.64
5539.28
5389.41
5239.98
5090.91
4942.16
4793.67
4645.42
4497.37
4349.48
4201.72
4054.09
3906.54
3759.08
3611.7
3464.38
3317.14
3169.98
3022.9
2875.93
2729.05
2582.29
2435.64
2289.1
2142.67
1996.33
1850.07
1703.85
1557.66
1411.43
1265.16
1118.82
972.4
825.937
679.452
532.981
386.503
240.016
94.1517
10.7513
-0.156414
-0.329166
-0.506673
-0.682483
-0.860922
-1.03938
-1.21831
-1.39752
-1.57692
-1.75644
14651.6
14504.5
14357.3
14210.1
14062.8
13915.6
13768.4
13621.1
13473.8
13326.5
13179.1
13031.8
12884.4
12737
12589.5
12442
12294.5
12147
11999.4
11851.7
11704.1
11556.3
11408.6
11260.7
11112.8
10964.8
10816.8
10668.7
10520.5
10372.3
10223.9
10075.5
9926.98
9778.35
9629.62
9480.76
9331.78
9182.66
9033.4
8883.97
8734.36
8584.54
8434.48
8284.15
8133.52
7982.56
7831.2
7679.41
7527.15
7374.39
7221.13
7067.42
6913.39
6759.21
6605.13
6451.35
6298.06
6145.35
5993.24
5841.71
5690.74
5540.27
5390.27
5240.68
5091.45
4942.53
4793.89
4645.49
4497.29
4349.28
4201.41
4053.68
3906.06
3758.54
3611.12
3463.78
3316.53
3169.37
3022.31
2875.34
2728.48
2581.73
2435.08
2288.54
2142.1
1995.75
1849.49
1703.28
1557.13
1410.99
1264.86
1118.74
972.625
826.559
680.552
534.671
388.932
243.226
98.6046
13.179
-0.162197
-0.332956
-0.510376
-0.685641
-0.863226
-1.04098
-1.21921
-1.39779
-1.57659
-1.75552
14653.1
14505.9
14358.7
14211.5
14064.2
13917
13769.7
13622.4
13475.1
13327.8
13180.4
13033.1
12885.6
12738.2
12590.7
12443.2
12295.6
12148
12000.4
11852.7
11705
11557.2
11409.3
11261.4
11113.4
10965.3
10817.2
10669
10520.7
10372.3
10223.8
10075.2
9926.53
9777.73
9628.81
9479.76
9330.57
9181.23
9031.74
8882.08
8732.24
8582.18
8431.89
8281.34
8130.51
7979.38
7827.9
7676.05
7523.82
7371.2
7218.21
7064.92
6911.41
6757.82
6604.32
6451.06
6298.17
6145.72
5993.76
5842.3
5691.32
5540.8
5390.71
5241.01
5091.65
4942.62
4793.85
4645.33
4497.02
4348.9
4200.95
4053.14
3905.46
3757.9
3610.44
3463.08
3315.82
3168.66
3021.6
2874.64
2727.79
2581.03
2434.39
2287.85
2141.41
1995.07
1848.82
1702.64
1556.54
1410.51
1264.52
1118.6
972.768
827.065
681.497
536.157
391.107
246.078
102.556
15.3501
-0.166497
-0.336431
-0.513193
-0.68831
-0.865133
-1.04235
-1.22001
-1.39804
-1.57632
-1.75474
14654.5
14507.3
14360.1
14212.9
14065.6
13918.4
13771.1
13623.8
13476.5
13329.1
13181.8
13034.4
12886.9
12739.5
12591.9
12444.4
12296.8
12149.2
12001.5
11853.7
11705.9
11558.1
11410.1
11262.1
11114.1
10965.9
10817.7
10669.3
10520.9
10372.4
10223.8
10075
9926.19
9777.22
9628.12
9478.88
9329.5
9179.95
9030.25
8880.37
8730.31
8580.03
8429.53
8278.79
8127.79
7976.51
7824.93
7673.04
7520.85
7368.35
7215.58
7062.6
6909.48
6756.32
6603.25
6450.38
6297.8
6145.58
5993.78
5842.4
5691.44
5540.9
5390.76
5240.99
5091.55
4942.42
4793.57
4644.95
4496.56
4348.36
4200.34
4052.47
3904.74
3757.14
3609.65
3462.27
3315.01
3167.84
3020.78
2873.82
2726.97
2580.22
2433.57
2287.04
2140.6
1994.27
1848.04
1701.9
1555.86
1409.92
1264.07
1118.35
972.765
827.385
682.209
537.344
392.92
248.482
105.914
17.2465
-0.169437
-0.339711
-0.515224
-0.690553
-0.866617
-1.04346
-1.22065
-1.39824
-1.57609
-1.75409
14655.9
14508.7
14361.5
14214.3
14067.1
13919.8
13772.5
13625.2
13477.9
13330.5
13183.1
13035.7
12888.3
12740.8
12593.2
12445.6
12298
12150.3
12002.6
11854.8
11707
11559
11411
11263
11114.8
10966.6
10818.2
10669.8
10521.3
10372.6
10223.8
10075
9925.97
9776.84
9627.56
9478.14
9328.57
9178.83
9028.92
8878.83
8728.56
8578.09
8427.4
8276.48
8125.32
7973.91
7822.25
7670.33
7518.15
7365.75
7213.14
7060.39
6907.55
6754.7
6601.95
6449.36
6297.03
6145.01
5993.35
5842.05
5691.15
5540.62
5390.45
5240.64
5091.14
4941.95
4793.03
4644.34
4495.88
4347.63
4199.55
4051.64
3903.87
3756.24
3608.73
3461.35
3314.07
3166.9
3019.83
2872.88
2726.02
2579.28
2432.63
2286.1
2139.67
1993.35
1847.14
1701.04
1555.05
1409.2
1263.47
1117.93
972.554
827.451
682.614
538.149
394.265
250.354
108.591
18.8448
-0.171024
-0.342725
-0.516609
-0.692388
-0.867603
-1.04431
-1.22106
-1.39833
-1.57586
-1.75353
14657.4
14510.2
14363
14215.8
14068.5
13921.3
13774
13626.6
13479.3
13331.9
13184.5
13037.1
12889.6
12742.1
12594.5
12446.9
12299.3
12151.6
12003.8
11855.9
11708
11560.1
11412
11263.9
11115.6
10967.3
10818.9
10670.3
10521.7
10372.9
10224
10075
9925.87
9776.58
9627.14
9477.55
9327.79
9177.86
9027.75
8877.47
8727
8576.34
8425.46
8274.38
8123.07
7971.54
7819.79
7667.82
7515.66
7363.31
7210.81
7058.21
6905.57
6752.95
6600.43
6448.06
6295.93
6144.07
5992.53
5841.32
5690.46
5539.96
5389.79
5239.95
5090.43
4941.18
4792.21
4643.49
4494.99
4346.7
4198.59
4050.65
3902.86
3755.21
3607.69
3460.29
3313
3165.83
3018.76
2871.81
2724.95
2578.2
2431.56
2285.03
2138.6
1992.29
1846.1
1700.03
1554.09
1408.31
1262.66
1117.29
972.079
827.201
682.648
538.505
395.057
251.601
110.485
20.0676
-0.171517
-0.345373
-0.517346
-0.693885
-0.868031
-1.0449
-1.22119
-1.39829
-1.57559
-1.75306
14658.9
14511.7
14364.5
14217.3
14070
13922.7
13775.4
13628.1
13480.8
13333.4
13186
13038.5
12891
12743.5
12595.9
12448.3
12300.6
12152.8
12005
11857.1
11709.2
11561.2
11413
11264.8
11116.5
10968.1
10819.6
10671
10522.2
10373.4
10224.3
10075.2
9925.91
9776.47
9626.87
9477.1
9327.16
9177.05
9026.75
8876.27
8725.61
8574.76
8423.71
8272.46
8121
7969.35
7817.5
7665.48
7513.29
7360.96
7208.53
7056.03
6903.53
6751.06
6598.7
6446.51
6294.52
6142.79
5991.35
5840.22
5689.42
5538.94
5388.79
5238.95
5089.41
4940.15
4791.15
4642.41
4493.89
4345.57
4197.44
4049.48
3901.68
3754.02
3606.5
3459.09
3311.81
3164.63
3017.57
2870.61
2723.75
2577
2430.36
2283.82
2137.39
1991.08
1844.9
1698.85
1552.94
1407.21
1261.64
1116.37
971.285
826.579
682.247
538.358
395.214
252.155
111.5
20.8291
-0.171486
-0.347494
-0.517449
-0.694866
-0.867912
-1.04515
-1.22096
-1.39808
-1.57526
-1.75264
14660.4
14513.2
14366
14218.8
14071.5
13924.2
13776.9
13629.6
13482.2
13334.9
13187.4
13040
12892.5
12744.9
12597.3
12449.7
12301.9
12154.2
12006.3
11858.4
11710.4
11562.3
11414.2
11265.9
11117.5
10969.1
10820.5
10671.8
10522.9
10373.9
10224.8
10075.5
9926.09
9776.5
9626.74
9476.81
9326.7
9176.41
9025.92
8875.25
8724.4
8573.35
8422.12
8270.7
8119.09
7967.3
7815.35
7663.24
7511.01
7358.67
7206.26
7053.82
6901.39
6749.03
6596.79
6444.7
6292.83
6141.2
5989.84
5838.78
5688.03
5537.59
5387.45
5237.63
5088.09
4938.83
4789.83
4641.08
4492.56
4344.23
4196.1
4048.14
3900.34
3752.68
3605.16
3457.76
3310.48
3163.3
3016.24
2869.28
2722.42
2575.67
2429.01
2282.47
2136.04
1989.72
1843.54
1697.49
1551.6
1405.89
1260.38
1115.17
970.114
825.53
681.336
537.627
394.65
251.942
111.593
21.0841
-0.171505
-0.348747
-0.516897
-0.695154
-0.867206
-1.04494
-1.22032
-1.39769
-1.57482
-1.75226
14661.9
14514.7
14367.5
14220.3
14073
13925.7
13778.4
13631.1
13483.8
13336.4
13188.9
13041.5
12893.9
12746.4
12598.8
12451.1
12303.4
12155.6
12007.7
11859.8
11711.7
11563.6
11415.4
11267.1
11118.7
10970.1
10821.4
10672.6
10523.7
10374.6
10225.4
10076
9926.41
9776.68
9626.77
9476.68
9326.41
9175.93
9025.27
8874.41
8723.35
8572.12
8420.69
8269.09
8117.32
7965.38
7813.3
7661.09
7508.78
7356.4
7203.97
7051.54
6899.15
6746.85
6594.67
6442.66
6290.86
6139.3
5988.01
5837.01
5686.3
5535.9
5385.79
5235.99
5086.47
4937.23
4788.25
4639.51
4491
4342.69
4194.57
4046.62
3898.83
3751.18
3603.67
3456.28
3309.01
3161.84
3014.78
2867.82
2720.96
2574.2
2427.54
2280.98
2134.53
1988.2
1842
1695.94
1550.04
1404.33
1258.82
1113.61
968.583
824.033
679.879
536.242
393.356
250.82
110.698
20.7628
-0.17144
-0.349092
-0.515566
-0.694615
-0.86583
-1.04418
-1.21926
-1.39705
-1.57422
-1.7519
14663.5
14516.3
14369.1
14221.8
14074.6
13927.3
13780
13632.7
13485.3
13337.9
13190.5
13043
12895.5
12747.9
12600.3
12452.6
12304.9
12157.1
12009.2
11861.2
11713.1
11565
11416.7
11268.4
11119.9
10971.3
10822.5
10673.7
10524.6
10375.5
10226.1
10076.6
9926.9
9777.03
9626.97
9476.72
9326.28
9175.63
9024.78
8873.73
8722.48
8571.04
8419.42
8267.63
8115.68
7963.57
7811.34
7659.01
7506.59
7354.12
7201.64
7049.18
6896.79
6744.49
6592.34
6440.37
6288.62
6137.1
5985.86
5834.9
5684.24
5533.87
5383.81
5234.04
5084.56
4935.35
4786.4
4637.69
4489.21
4340.93
4192.83
4044.91
3897.15
3749.53
3602.03
3454.66
3307.4
3160.25
3013.19
2866.24
2719.37
2572.6
2425.93
2279.35
2132.88
1986.53
1840.3
1694.2
1548.27
1402.52
1256.98
1111.72
966.657
822.076
677.875
534.194
391.309
248.688
108.683
19.7534
-0.169959
-0.348235
-0.512978
-0.693107
-0.863629
-1.0428
-1.21773
-1.39612
-1.57341
-1.75156
14665.1
14517.9
14370.7
14223.4
14076.2
13928.9
13781.6
13634.3
13486.9
13339.5
13192.1
13044.6
12897.1
12749.5
12601.9
12454.2
12306.4
12158.6
12010.7
11862.7
11714.6
11566.4
11418.2
11269.8
11121.2
10972.6
10823.8
10674.8
10525.7
10376.4
10227
10077.4
9927.56
9777.55
9627.34
9476.94
9326.32
9175.5
9024.46
8873.22
8721.77
8570.13
8418.3
8266.3
8114.15
7961.85
7809.45
7656.95
7504.4
7351.82
7199.24
7046.71
6894.27
6741.95
6589.79
6437.82
6286.08
6134.59
5983.38
5832.46
5681.83
5531.51
5381.49
5231.77
5082.34
4933.18
4784.28
4635.62
4487.18
4338.95
4190.9
4043.02
3895.29
3747.71
3600.24
3452.9
3305.66
3158.52
3011.48
2864.52
2717.66
2570.88
2424.19
2277.59
2131.09
1984.7
1838.42
1692.28
1546.29
1400.47
1254.85
1109.49
964.325
819.677
675.333
531.483
388.464
245.528
105.424
17.9418
-0.162997
-0.346399
-0.508424
-0.690579
-0.860415
-1.04071
-1.21566
-1.39485
-1.57239
-1.75123
14666.7
14519.5
14372.3
14225
14077.8
13930.5
13783.2
13635.9
13488.5
13341.1
13193.7
13046.2
12898.7
12751.1
12603.5
12455.8
12308.1
12160.2
12012.3
11864.3
11716.2
11568
11419.7
11271.3
11122.7
10974
10825.1
10676.1
10527
10377.6
10228.1
10078.3
9928.4
9778.26
9627.9
9477.34
9326.55
9175.54
9024.31
8872.87
8721.21
8569.35
8417.3
8265.08
8112.71
7960.2
7807.59
7654.91
7502.18
7349.45
7196.74
7044.1
6891.57
6739.18
6586.97
6434.98
6283.23
6131.75
5980.56
5829.66
5679.08
5528.81
5378.84
5229.18
5079.81
4930.72
4781.88
4633.29
4484.92
4336.75
4188.76
4040.94
3893.26
3745.72
3598.3
3451
3303.79
3156.67
3009.64
2862.69
2715.82
2569.03
2422.33
2275.7
2129.16
1982.72
1836.38
1690.17
1544.09
1398.18
1252.45
1106.96
961.649
816.809
672.258
528.123
384.821
241.366
100.829
15.2733
-0.149125
-0.343991
-0.501442
-0.686885
-0.85607
-1.03785
-1.21306
-1.39322
-1.57119
-1.75086
14668.3
14521.1
14373.9
14226.6
14079.4
13932.1
13784.8
13637.5
13490.2
13342.8
13195.4
13047.9
12900.4
12752.8
12605.2
12457.5
12309.8
12161.9
12014
11866
11717.9
11569.7
11421.4
11272.9
11124.3
10975.6
10826.7
10677.6
10528.4
10378.9
10229.3
10079.5
9929.43
9779.16
9628.66
9477.93
9326.97
9175.78
9024.35
8872.69
8720.81
8568.71
8416.42
8263.96
8111.34
7958.59
7805.75
7652.84
7499.9
7346.97
7194.1
7041.31
6888.65
6736.16
6583.88
6431.83
6280.05
6128.56
5977.37
5826.51
5675.96
5525.74
5375.84
5226.26
5076.96
4927.95
4779.21
4630.7
4482.41
4334.33
4186.42
4038.67
3891.06
3743.58
3596.22
3448.95
3301.78
3154.69
3007.68
2860.74
2713.87
2567.07
2420.34
2273.68
2127.1
1980.6
1834.19
1687.89
1541.71
1395.67
1249.79
1104.13
958.629
813.535
668.697
524.176
380.453
236.322
94.9406
11.8007
-0.13411
-0.340897
-0.493045
-0.682137
-0.850788
-1.03425
-1.20995
-1.39124
-1.56981
-1.75044
14669.9
14522.7
14375.5
14228.3
14081.1
13933.8
13786.5
13639.2
13491.9
13344.5
13197.1
13049.6
12902.1
12754.6
12606.9
12459.3
12311.5
12163.7
12015.8
11867.8
11719.7
11571.5
11423.1
11274.7
11126
10977.3
10828.3
10679.2
10529.9
10380.4
10230.7
10080.8
9930.67
9780.27
9629.63
9478.74
9327.6
9176.21
9024.57
8872.68
8720.56
8568.21
8415.66
8262.93
8110.03
7957.01
7803.89
7650.72
7497.53
7344.37
7191.28
7038.3
6885.48
6732.85
6580.46
6428.34
6276.51
6124.99
5973.81
5822.96
5672.46
5522.3
5372.47
5222.98
5073.78
4924.88
4776.24
4627.84
4479.66
4331.68
4183.87
4036.21
3888.69
3741.29
3593.99
3446.78
3299.66
3152.6
3005.62
2858.69
2711.82
2565.01
2418.25
2271.56
2124.92
1978.35
1831.86
1685.46
1539.15
1392.96
1246.91
1101.05
955.303
809.902
664.718
519.74
375.51
230.637
88.1181
7.78826
-0.123139
-0.335507
-0.484331
-0.674638
-0.844515
-1.02957
-1.20639
-1.38893
-1.5683
-1.74997
14671.6
14524.4
14377.2
14230
14082.7
13935.5
13788.2
13640.9
13493.6
13346.2
13198.8
13051.4
12903.9
12756.3
12608.8
12461.1
12313.4
12165.6
12017.7
11869.7
11721.6
11573.4
11425
11276.6
11127.9
10979.1
10830.2
10681
10531.7
10382.1
10232.4
10082.4
9932.13
9781.6
9630.82
9479.77
9328.45
9176.85
9024.99
8872.86
8720.48
8567.86
8415.02
8261.98
8108.77
7955.44
7802
7648.52
7495.04
7341.6
7188.25
7035.04
6882.01
6729.21
6576.69
6424.46
6272.56
6121
5969.81
5818.99
5668.54
5518.46
5368.72
5219.33
5070.26
4921.48
4772.97
4624.71
4476.66
4328.81
4181.12
4033.57
3886.16
3738.85
3591.63
3444.49
3297.42
3150.41
3003.45
2856.54
2709.68
2562.85
2416.07
2269.33
2122.64
1975.99
1829.41
1682.89
1536.44
1390.09
1243.83
1097.73
951.715
805.968
660.396
514.927
370.189
224.64
81.2446
3.89024
-0.0993028
-0.301182
-0.469888
-0.663262
-0.838
-1.02407
-1.2028
-1.38639
-1.56676
-1.74945
14673.3
14526.1
14378.9
14231.7
14084.4
13937.2
13789.9
13642.6
13495.3
13348
13200.6
13053.2
12905.7
12758.2
12610.6
12463
12315.3
12167.5
12019.6
11871.7
11723.6
11575.4
11427.1
11278.6
11130
10981.2
10832.2
10683
10533.6
10384
10234.1
10084.2
9933.82
9783.17
9632.25
9481.04
9329.53
9177.73
9025.63
8873.25
8720.58
8567.66
8414.49
8261.12
8107.56
7953.86
7800.07
7646.23
7492.4
7338.63
7184.97
7031.48
6878.21
6725.2
6572.5
6420.14
6268.16
6116.56
5965.36
5814.56
5664.17
5514.17
5364.55
5215.29
5066.36
4917.74
4769.4
4621.3
4473.41
4325.71
4178.16
4030.76
3883.46
3736.26
3589.14
3442.08
3295.08
3148.12
3001.2
2854.31
2707.45
2560.62
2413.81
2267.03
2120.27
1973.55
1826.86
1680.21
1533.61
1387.07
1240.59
1094.23
947.911
801.784
655.804
509.82
364.644
218.538
75.9173
0.96724
-0.0983265
-0.306093
-0.470941
-0.652961
-0.83308
-1.01812
-1.19926
-1.38368
-1.56525
-1.74889
14675
14527.8
14380.6
14233.4
14086.2
13938.9
13791.7
13644.4
13497.1
13349.8
13202.4
13055
12907.6
12760.1
12612.6
12465
12317.3
12169.5
12021.7
11873.7
11725.7
11577.5
11429.2
11280.8
11132.2
10983.4
10834.4
10685.2
10535.8
10386.2
10236.3
10086.2
9935.73
9784.98
9633.93
9482.56
9330.87
9178.85
9026.51
8873.85
8720.88
8567.62
8414.1
8260.34
8106.39
7952.28
7798.07
7643.82
7489.58
7335.42
7181.39
7027.57
6874.01
6720.75
6567.85
6415.34
6263.25
6111.59
5960.38
5809.62
5659.3
5509.41
5359.93
5210.83
5062.08
4913.65
4765.5
4617.6
4469.9
4322.38
4175.01
4027.77
3880.62
3733.55
3586.54
3439.58
3292.65
3145.76
2998.88
2852.02
2705.17
2558.32
2411.49
2264.66
2117.84
1971.03
1824.23
1677.45
1530.68
1383.95
1237.23
1090.59
943.946
797.408
650.98
504.428
358.669
211.961
71.1094
0.393929
-0.123791
-0.20519
-0.461427
-0.633897
-0.82536
-1.01188
-1.1961
-1.38111
-1.56396
-1.74832
14676.7
14529.5
14382.3
14235.1
14087.9
13940.7
13793.4
13646.2
13498.9
13351.6
13204.3
13056.9
12909.5
12762.1
12614.5
12467
12319.3
12171.6
12023.8
11875.9
11727.9
11579.8
11431.5
11283.1
11134.5
10985.8
10836.8
10687.6
10538.2
10388.5
10238.6
10088.4
9937.9
9787.06
9635.88
9484.36
9332.48
9180.24
9027.64
8874.69
8721.39
8567.77
8413.85
8259.66
8105.25
7950.68
7795.99
7641.25
7486.54
7331.92
7177.47
7023.26
6869.35
6715.8
6562.66
6409.97
6257.75
6106.04
5954.83
5804.11
5653.89
5504.13
5354.82
5205.92
5057.39
4909.2
4761.28
4613.61
4466.14
4318.84
4171.67
4024.61
3877.63
3730.71
3583.83
3436.98
3290.15
3143.32
2996.5
2849.67
2702.83
2555.98
2409.12
2262.25
2115.36
1968.46
1821.55
1674.63
1527.7
1380.76
1233.81
1086.87
939.879
792.907
645.973
498.79
352.176
204.707
66.5124
0.32335
-0.126084
-0.216991
-0.466723
-0.622035
-0.825398
-1.00645
-1.19376
-1.37882
-1.56289
-1.7478
14678.4
14531.2
14384
14236.8
14089.6
13942.4
13795.2
13648
13500.7
13353.5
13206.2
13058.8
12911.5
12764.1
12616.6
12469.1
12321.5
12173.8
12026.1
11878.2
11730.2
11582.2
11433.9
11285.6
11137
10988.3
10839.4
10690.2
10540.8
10391.2
10241.2
10091
9940.37
9789.43
9638.14
9486.46
9334.39
9181.92
9029.05
8875.78
8722.13
8568.1
8413.74
8259.08
8104.16
7949.04
7793.8
7638.51
7483.24
7328.09
7173.13
7018.46
6864.14
6710.25
6556.83
6403.94
6251.59
6099.81
5948.6
5797.96
5647.85
5498.27
5349.17
5200.52
5052.26
4904.34
4756.71
4609.31
4462.12
4315.07
4168.15
4021.31
3874.52
3727.77
3581.04
3434.32
3287.59
3140.84
2994.08
2847.28
2700.46
2553.61
2406.73
2259.81
2112.86
1965.87
1818.85
1671.8
1524.7
1377.56
1230.36
1083.12
935.784
788.371
640.884
493.038
345.344
196.871
61.0752
0.225538
-0.0872278
-0.230713
-0.442651
-0.624665
-0.821402
-1.00373
-1.19255
-1.37709
-1.5622
-1.74737
14680.1
14532.9
14385.7
14238.6
14091.4
13944.2
13797
13649.8
13502.6
13355.4
13208.1
13060.8
12913.5
12766.1
12618.7
12471.2
12323.7
12176.1
12028.4
11880.6
11732.7
11584.7
11436.5
11288.2
11139.7
10991.1
10842.2
10693.1
10543.7
10394
10244.1
10093.8
9943.15
9792.12
9640.71
9488.88
9336.62
9183.92
9030.77
8877.16
8723.12
8568.66
8413.8
8258.6
8103.1
7947.37
7791.48
7635.54
7479.62
7323.84
7168.3
7013.09
6858.3
6704.01
6550.28
6397.15
6244.65
6092.81
5941.61
5791.06
5641.11
5491.75
5342.92
5194.58
5046.65
4899.07
4751.78
4604.72
4457.84
4311.1
4164.45
4017.86
3871.3
3724.74
3578.18
3431.6
3284.99
3138.33
2991.63
2844.88
2698.09
2551.23
2404.33
2257.37
2110.36
1963.29
1816.16
1668.97
1521.71
1374.38
1226.94
1079.42
931.745
783.91
635.877
487.425
338.688
189.421
55.9869
0.0981807
-0.085211
-0.250239
-0.447589
-0.627866
-0.819663
-1.00252
-1.19117
-1.37595
-1.56158
-1.74707
14681.9
14534.7
14387.5
14240.3
14093.2
13946
13798.8
13651.7
13504.5
13357.3
13210
13062.8
12915.5
12768.2
12620.8
12473.4
12325.9
12178.4
12030.8
11883.1
11735.2
11587.3
11439.2
11291
11142.6
10994
10845.2
10696.1
10546.8
10397.2
10247.2
10096.9
9946.25
9795.17
9643.64
9491.67
9339.22
9186.27
9032.82
8878.86
8724.4
8569.45
8414.04
8258.23
8102.07
7945.63
7789.01
7632.3
7475.63
7319.11
7162.87
7007.03
6851.69
6696.94
6542.84
6389.45
6236.8
6084.9
5933.74
5783.32
5633.58
5484.5
5336.02
5188.05
5040.53
4893.36
4746.48
4599.82
4453.32
4306.93
4160.59
4014.29
3867.98
3721.65
3575.28
3428.85
3282.36
3135.81
2989.18
2842.49
2695.72
2548.87
2401.95
2254.96
2107.89
1960.74
1813.51
1666.19
1518.78
1371.26
1223.62
1075.83
927.848
779.639
631.12
482.191
332.488
182.846
51.7156
0.0260325
-0.0785721
-0.267424
-0.448387
-0.631139
-0.819395
-1.00265
-1.19085
-1.37533
-1.56131
-1.74692
14683.6
14536.4
14389.2
14242.1
14094.9
13947.8
13800.6
13653.5
13506.3
13359.2
13212
13064.8
12917.6
12770.3
12623
12475.7
12328.3
12180.8
12033.3
11885.6
11737.9
11590
11442.1
11293.9
11145.6
10997.1
10848.4
10699.4
10550.1
10400.6
10250.7
10100.4
9949.71
9798.58
9646.97
9494.85
9342.21
9189.02
9035.26
8880.92
8726
8570.52
8414.5
8258
8101.08
7943.82
7786.34
7628.74
7471.18
7313.79
7156.74
7000.15
6844.16
6688.87
6534.36
6380.68
6227.87
6075.93
5924.85
5774.6
5625.16
5476.44
5328.38
5180.89
5033.86
4887.2
4740.81
4594.61
4448.55
4302.57
4156.6
4010.62
3864.6
3718.51
3572.34
3426.09
3279.74
3133.3
2986.76
2840.11
2693.38
2546.54
2399.61
2252.58
2105.46
1958.23
1810.91
1663.48
1515.93
1368.25
1220.42
1072.41
924.168
775.657
626.742
477.496
327.156
177.315
48.4283
0.0749683
-0.0718994
-0.268664
-0.44482
-0.631806
-0.818153
-1.00248
-1.19013
-1.37491
-1.56108
-1.74681
14685.3
14538.1
14390.9
14243.8
14096.7
13949.6
13802.5
13655.3
13508.2
13361.1
13214
13066.8
12919.6
12772.4
12625.2
12478
12330.6
12183.3
12035.8
11888.3
11740.7
11592.9
11445
11297
11148.8
11000.4
10851.8
10702.9
10553.8
10404.3
10254.4
10104.2
9953.54
9802.39
9650.71
9498.47
9345.64
9192.21
9038.13
8883.38
8727.97
8571.9
8415.21
8257.93
8100.14
7941.94
7783.45
7624.8
7466.18
7307.76
7149.74
6992.27
6835.52
6679.62
6524.64
6370.65
6217.67
6065.71
5914.76
5764.76
5615.68
5467.44
5319.93
5173.03
5026.61
4880.55
4734.75
4589.11
4443.56
4298.04
4152.49
4006.88
3861.17
3715.35
3569.42
3423.35
3277.15
3130.83
2984.37
2837.79
2691.08
2544.26
2397.32
2250.27
2103.09
1955.81
1808.4
1660.87
1513.2
1365.38
1217.39
1069.2
920.763
772.041
622.893
473.448
322.882
172.909
45.9482
0.1055
-0.0699822
-0.261613
-0.444826
-0.630657
-0.817833
-1.00227
-1.18973
-1.3747
-1.56093
-1.74673
14687
14539.8
14392.7
14245.5
14098.4
13951.3
13804.3
13657.2
13510.1
13363
13215.9
13068.8
12921.7
12774.6
12627.5
12480.3
12333.1
12185.8
12038.4
11891
11743.5
11595.9
11448.1
11300.2
11152.2
11003.9
10855.4
10706.7
10557.7
10408.3
10258.6
10108.4
9957.77
9806.63
9654.92
9502.58
9349.57
9195.91
9041.48
8886.31
8730.37
8573.66
8416.2
8258.05
8099.27
7939.97
7780.29
7620.41
7460.53
7300.87
7141.68
6983.17
6825.53
6668.91
6513.4
6359.08
6205.95
6054.01
5903.24
5753.59
5605
5457.38
5310.56
5164.39
5018.72
4873.4
4728.3
4583.31
4438.36
4293.38
4148.3
4003.1
3857.74
3712.22
3566.53
3420.66
3274.62
3128.41
2982.05
2835.53
2688.86
2542.06
2395.11
2248.03
2100.82
1953.47
1805.99
1658.37
1510.6
1362.66
1214.55
1066.23
917.653
768.802
619.53
469.966
319.384
168.791
44.3898
0.125415
-0.0666985
-0.256393
-0.443444
-0.629555
-0.817084
-1.0021
-1.18932
-1.37464
-1.56081
-1.74668
14688.7
14541.5
14394.4
14247.3
14100.2
13953.1
13806
13659
13512
13364.9
13217.9
13070.9
12923.8
12776.8
12629.7
12482.6
12335.5
12188.3
12041.1
11893.8
11746.4
11599
11451.4
11303.6
11155.7
11007.6
10859.3
10710.7
10561.8
10412.6
10263
10113
9962.43
9811.33
9659.62
9507.22
9354.08
9200.15
9045.39
8889.77
8733.27
8575.85
8417.55
8258.4
8098.48
7937.91
7776.84
7615.48
7454.08
7292.92
7132.3
6972.53
6813.82
6656.34
6500.23
6345.55
6192.31
6040.48
5890.04
5740.9
5592.96
5446.14
5300.19
5154.92
5010.15
4865.72
4721.46
4577.24
4432.99
4288.62
4144.07
3999.32
3854.35
3709.14
3563.71
3418.05
3272.18
3126.1
2979.82
2833.36
2686.74
2539.94
2392.99
2245.89
2098.64
1951.24
1803.7
1656
1508.14
1360.12
1211.91
1063.49
914.835
765.933
616.645
467.12
316.747
166.29
43.6997
0.133748
-0.0676706
-0.252844
-0.443355
-0.628893
-0.816747
-1.00207
-1.18905
-1.37466
-1.56074
-1.74667
14690.3
14543.2
14396
14248.9
14101.9
13954.8
13807.8
13660.8
13513.8
13366.9
13219.9
13072.9
12926
12779
12632
12485
12338
12190.9
12043.8
11896.7
11749.4
11602.1
11454.7
11307.1
11159.4
11011.5
10863.3
10715
10566.3
10417.2
10267.8
10117.9
9967.53
9816.52
9664.85
9512.43
9359.19
9205.04
9049.93
8893.85
8736.74
8578.56
8419.32
8259.04
8097.82
7935.75
7773.04
7609.89
7446.61
7283.56
7121.12
6959.81
6799.89
6641.46
6484.66
6329.55
6176.18
6024.54
5874.54
5726.14
5579.17
5433.43
5288.65
5144.57
5000.95
4857.61
4714.33
4570.97
4427.49
4283.8
4139.85
3995.6
3851.04
3706.17
3561.01
3415.56
3269.85
3123.9
2977.71
2831.31
2684.72
2537.94
2390.99
2243.86
2096.58
1949.14
1801.54
1653.77
1505.84
1357.74
1209.46
1060.98
912.294
763.395
614.182
464.821
314.819
164.887
43.66
0.130932
-0.0707111
-0.252052
-0.444252
-0.628774
-0.816812
-1.00223
-1.18897
-1.37476
-1.56076
-1.7467
14692
14544.8
14397.7
14250.6
14103.6
13956.6
13809.6
13662.6
13515.7
13368.7
13221.8
13074.9
12928.1
12781.2
12634.3
12487.4
12340.5
12193.6
12046.6
11899.6
11752.5
11605.3
11458.1
11310.7
11163.2
11015.5
10867.6
10719.4
10571
10422.2
10273
10123.3
9973.09
9822.23
9670.65
9518.26
9364.96
9210.64
9055.21
8898.63
8740.88
8581.87
8421.59
8260.04
8097.31
7933.51
7768.8
7603.43
7437.74
7272.38
7107.89
6944.68
6783.18
6623.58
6465.97
6310.38
6156.92
6005.57
5856.24
5708.86
5563.2
5418.91
5275.66
5133.1
4990.94
4848.93
4706.86
4564.58
4422.01
4279.08
4135.75
3992.01
3847.88
3703.36
3558.48
3413.24
3267.69
3121.85
2975.75
2829.41
2682.84
2536.07
2389.11
2241.97
2094.65
1947.16
1799.51
1651.69
1503.69
1355.53
1207.2
1058.68
909.984
761.124
612.034
462.894
313.356
164.116
43.9972
0.122974
-0.0723349
-0.254491
-0.44527
-0.629409
-0.817157
-1.0026
-1.18907
-1.37492
-1.56086
-1.74676
14693.5
14546.4
14399.3
14252.2
14105.2
13958.2
13811.3
13664.4