/*--------------------------------*- C++ -*----------------------------------*\
| =========                 |                                                 |
| \\      /  F ield         | OpenFOAM: The Open Source CFD Toolbox           |
|  \\    /   O peration     | Version:  v2106                                 |
|   \\  /    A nd           | Website:  www.openfoam.com                      |
|    \\/     M anipulation  |                                                 |
\*---------------------------------------------------------------------------*/
FoamFile
{
    version     2.0;
    format      ascii;
    arch        "LSB;label=32;scalar=64";
    class       volScalarField;
    location    "1.4";
    object      p_rgh;
}
// * * * * * * * * * * * * * * * * * * * * * * * * * * * * * * * * * * * * * //

dimensions      [1 -1 -2 0 0 0 0];

internalField   nonuniform List<scalar> 
29678
(
0.679062
0.678936
0.678365
0.676668
0.673626
0.668892
0.662203
0.653413
0.642475
0.629402
0.614231
0.596998
0.577714
0.556346
0.532816
0.506993
0.478706
0.447764
0.413971
0.377141
0.337103
0.293728
0.246981
0.197063
0.144814
0.0897241
0.0282591
-0.0400063
-0.112809
-0.190286
-0.273284
-0.362521
-0.45865
-0.561566
-0.67351
-0.794684
-0.92631
-1.0699
-1.22738
-1.40139
-1.59571
-1.81583
-2.06991
-2.3705
-2.73842
-3.2122
-3.87113
-4.89437
-6.71799
-10.4283
-18.2978
-34.5432
-55.6515
-89.4501
-115.013
-127.787
-133.888
-137.246
-139.29
-140.594
-141.422
-141.917
-142.159
-142.199
-142.071
-141.799
-141.397
-140.885
-140.297
-139.671
-139.057
-138.51
-138.089
-137.863
-137.85
-138.023
-138.326
-138.702
-139.06
-139.306
-139.374
-139.217
-138.799
-138.095
-137.089
-135.769
-134.148
-132.27
-130.23
-128.226
-126.645
-126.523
-130.163
-133.77
-133.745
-134.89
-138.462
-143.044
-143.784
0.108687
0.0196495
0.00242609
-0.0274307
-0.0233384
-0.0321344
-0.027474
-0.0270816
-0.022707
-0.0197621
-0.0174257
2.02176
2.01763
2.00954
1.99729
1.98143
1.96208
1.93906
1.91202
1.8806
1.84444
1.80321
1.75662
1.70435
1.64603
1.58131
1.50976
1.43092
1.34431
1.24942
1.14574
1.03276
0.909989
0.776995
0.633614
0.479705
0.312086
0.126256
-0.0763002
-0.292305
-0.523315
-0.771303
-1.038
-1.32515
-1.63461
-1.96913
-2.33143
-2.72492
-3.15377
-3.6234
-4.14113
-4.71727
-5.36642
-6.1091
-6.9745
-8.0056
-9.26876
-10.8681
-12.9574
-15.7102
-19.1636
-23.2432
-28.2058
-50.2954
-78.9374
-103.726
-117.4
-125.468
-130.421
-133.678
-135.934
-137.549
-138.699
-139.495
-140.015
-140.313
-140.422
-140.365
-140.17
-139.87
-139.504
-139.121
-138.772
-138.512
-138.378
-138.425
-138.655
-139.005
-139.348
-139.661
-139.874
-139.934
-139.802
-139.451
-138.861
-138.022
-136.926
-135.572
-133.992
-132.245
-130.417
-128.914
-128.292
-130.466
-134.217
-134.825
-135.754
-138.569
-142.218
-144.975
0.260923
0.0452866
0.0206358
-0.0194707
-0.0200439
-0.0273972
-0.0243753
-0.0233133
-0.0197381
-0.0169271
-0.0148889
3.36734
3.36015
3.34621
3.32544
3.29872
3.2663
3.22798
3.18326
3.13151
3.07212
3.00451
2.92812
2.84238
2.74667
2.64035
2.52269
2.39295
2.25032
2.09397
1.92303
1.7366
1.53375
1.3135
1.07496
0.815814
0.532489
0.224017
-0.108012
-0.464302
-0.846969
-1.25842
-1.70116
-2.17793
-2.69196
-3.24722
-3.84826
-4.50044
-5.21027
-5.98607
-6.83914
-7.78528
-8.84637
-10.052
-11.4424
-13.0734
-15.0269
-17.4255
-20.4517
-24.379
-29.6764
-37.3551
-48.8284
-64.6373
-81.5837
-96.9023
-108.464
-116.823
-122.846
-127.265
-130.572
-133.04
-134.882
-136.27
-137.306
-138.057
-138.572
-138.891
-139.051
-139.089
-139.042
-138.95
-138.852
-138.784
-138.775
-138.842
-138.959
-139.08
-139.217
-139.298
-139.283
-139.135
-138.826
-138.335
-137.652
-136.777
-135.721
-134.518
-133.23
-131.975
-130.935
-130.225
-130.196
-131.2
-132.663
-133.504
-134.8
-137.075
-140.196
-145.415
0.0665829
0.02458
-0.0037863
-0.0171532
-0.0202121
-0.023738
-0.0227018
-0.0213639
-0.0190124
-0.0166152
-0.0143998
4.71782
4.70775
4.68823
4.65927
4.62212
4.57713
4.52403
4.46212
4.39053
4.3084
4.21491
4.10927
3.99065
3.85817
3.71091
3.54786
3.36797
3.17011
2.9531
2.71571
2.45666
2.17454
1.86782
1.53501
1.1719
0.775906
0.346595
-0.114416
-0.609904
-1.14278
-1.71602
-2.33285
-2.99696
-3.71272
-4.48533
-5.32081
-6.22611
-7.20948
-8.28143
-9.45621
-10.7536
-12.2004
-13.8314
-15.6918
-17.8413
-20.3646
-23.3833
-27.0667
-31.6407
-37.4016
-44.6858
-53.7365
-65.2298
-78.4331
-91.43
-102.365
-110.899
-117.457
-122.5
-126.418
-129.484
-131.883
-133.762
-135.235
-136.374
-137.239
-137.876
-138.327
-138.632
-138.827
-138.948
-139.031
-139.106
-139.194
-139.31
-139.451
-139.592
-139.711
-139.775
-139.753
-139.615
-139.337
-138.904
-138.306
-137.543
-136.627
-135.589
-134.473
-133.372
-132.39
-131.672
-131.413
-131.75
-132.528
-133.341
-134.37
-136.008
-138.269
-141.996
-0.12625
-0.0199356
-0.0257991
-0.0268026
-0.0250496
-0.025112
-0.022968
-0.0207124
-0.0179904
-0.0152226
-0.0126493
6.07576
6.06291
6.03801
6.00114
5.95392
5.89678
5.82942
5.75091
5.66012
5.55596
5.43737
5.30332
5.15271
4.98442
4.79725
4.5899
4.36101
4.10911
3.83268
3.53012
3.19976
2.83974
2.44804
2.02242
1.55839
1.05244
0.505777
-0.0824952
-0.715538
-1.39671
-2.12951
-2.91781
-3.76612
-4.67976
-5.66504
-6.7291
-7.88001
-9.12714
-10.4823
-11.9617
-13.5872
-15.3883
-17.4016
-19.6719
-22.2563
-25.2326
-28.7081
-32.8224
-37.7464
-43.6766
-50.8121
-59.3261
-69.4081
-80.3283
-90.8201
-100.043
-107.756
-114.07
-119.197
-123.35
-126.717
-129.452
-131.67
-133.469
-134.918
-136.072
-136.978
-137.678
-138.211
-138.616
-138.923
-139.162
-139.357
-139.528
-139.679
-139.805
-139.893
-139.925
-139.884
-139.749
-139.503
-139.131
-138.624
-137.981
-137.207
-136.321
-135.352
-134.342
-133.378
-132.534
-131.882
-131.521
-131.49
-131.706
-132.034
-132.554
-133.444
-134.688
-136.41
-0.143423
-0.0448337
-0.0412529
-0.0354461
-0.0302493
-0.0276325
-0.0242547
-0.0210728
-0.0177922
-0.0145337
-0.011378
7.44353
7.42801
7.39797
7.35352
7.29665
7.22791
7.14693
7.05254
6.94336
6.81806
6.67536
6.51393
6.33248
6.1296
5.90382
5.65355
5.3771
5.07269
4.73839
4.3722
3.97225
3.53627
3.06195
2.54575
1.98452
1.37239
0.710742
-0.00256904
-0.770836
-1.59772
-2.48716
-3.44354
-4.47205
-5.57881
-6.77097
-8.05649
-9.4441
-10.9437
-12.5675
-14.3323
-16.2609
-18.3832
-20.7348
-23.3572
-26.3009
-29.6325
-33.4393
-37.8238
-42.8985
-48.7863
-55.5824
-63.3152
-71.8904
-80.88
-89.6995
-97.8383
-105.008
-111.154
-116.349
-120.72
-124.381
-127.422
-129.939
-132.022
-133.739
-135.146
-136.29
-137.212
-137.951
-138.54
-139.011
-139.387
-139.691
-139.939
-140.137
-140.285
-140.376
-140.402
-140.349
-140.205
-139.958
-139.597
-139.116
-138.514
-137.797
-136.978
-136.081
-135.136
-134.196
-133.326
-132.56
-131.952
-131.522
-131.238
-131.051
-130.965
-131.06
-131.307
-131.425
-0.117193
-0.0567127
-0.0487465
-0.0420334
-0.0349105
-0.0305413
-0.0259672
-0.0218076
-0.0177909
-0.0138968
-0.0101131
8.82331
8.80526
8.77031
8.71865
8.65263
8.57293
8.47907
8.36967
8.24308
8.09774
7.93211
7.7446
7.53367
7.29769
7.03488
6.74337
6.42115
6.06613
5.67591
5.24848
4.7821
4.27368
3.71938
3.11424
2.46018
1.74387
0.969505
0.133927
-0.766525
-1.73582
-2.77823
-3.89858
-5.10255
-6.39689
-7.78934
-9.28839
-10.903
-12.6429
-14.5202
-16.551
-18.7578
-21.1689
-23.8171
-26.7383
-29.9741
-33.5781
-37.6172
-42.1622
-47.281
-53.0406
-59.4768
-66.5575
-74.1548
-81.9965
-89.725
-97.0181
-103.651
-109.517
-114.618
-119.015
-122.789
-125.999
-128.711
-130.996
-132.915
-134.518
-135.851
-136.952
-137.858
-138.6
-139.201
-139.688
-140.08
-140.391
-140.63
-140.796
-140.888
-140.899
-140.822
-140.65
-140.373
-139.986
-139.486
-138.874
-138.156
-137.344
-136.458
-135.522
-134.564
-133.64
-132.766
-131.958
-131.225
-130.538
-129.873
-129.194
-128.522
-127.859
-126.573
-0.112759
-0.0644427
-0.0532596
-0.0468297
-0.0387014
-0.0332033
-0.0277194
-0.022721
-0.0179927
-0.0134551
-0.00903587
10.2171
10.1967
10.1571
10.0986
10.024
9.93401
9.82816
9.70478
9.56192
9.39786
9.21076
8.99867
8.75983
8.49252
8.1947
7.86415
7.49863
7.09589
6.65343
6.1686
5.63852
5.05997
4.42821
3.73835
2.98905
2.17294
1.28944
0.335239
-0.693602
-1.80131
-2.99242
-4.27205
-5.64622
-7.12207
-8.70776
-10.412
-12.2437
-14.212
-16.328
-18.6066
-21.0684
-23.7395
-26.6484
-29.8245
-33.2999
-37.1155
-41.3203
-45.9603
-51.0717
-56.6827
-62.7938
-69.3518
-76.2389
-83.2654
-90.1992
-96.8201
-102.961
-108.526
-113.487
-117.862
-121.688
-125.005
-127.857
-130.299
-132.379
-134.144
-135.634
-136.886
-137.933
-138.799
-139.513
-140.095
-140.564
-140.932
-141.207
-141.394
-141.493
-141.502
-141.416
-141.232
-140.944
-140.55
-140.047
-139.438
-138.727
-137.923
-137.039
-136.091
-135.094
-134.08
-133.064
-132.036
-131
-129.916
-128.773
-127.504
-126.093
-124.649
-122.12
-0.114657
-0.0702246
-0.0570499
-0.0505318
-0.0418593
-0.0355076
-0.0293221
-0.0236208
-0.018255
-0.0131197
-0.00811351
11.6268
11.604
11.5601
11.4953
11.4126
11.3132
11.1963
11.0602
10.9024
10.7209
10.514
10.2795
10.0152
9.71908
9.38876
9.02193
8.61609
8.16864
7.67686
7.13729
6.54601
5.89909
5.19175
4.4198
3.5801
2.66737
1.67863
0.609935
-0.543013
-1.78468
-3.11981
-4.55368
-6.09247
-7.74355
-9.51525
-11.4164
-13.4554
-15.6408
-17.982
-20.492
-23.189
-26.0959
-29.2371
-32.6353
-36.3132
-40.2993
-44.6276
-49.3247
-54.4056
-59.8738
-65.7102
-71.858
-78.2186
-84.6541
-91.0043
-97.1139
-102.858
-108.153
-112.961
-117.274
-121.105
-124.476
-127.418
-129.969
-132.17
-134.059
-135.673
-137.045
-138.202
-139.17
-139.973
-140.631
-141.161
-141.576
-141.884
-142.092
-142.201
-142.212
-142.123
-141.933
-141.64
-141.241
-140.736
-140.126
-139.414
-138.606
-137.71
-136.733
-135.685
-134.568
-133.408
-132.17
-130.857
-129.41
-127.828
-126.018
-123.918
-121.797
-118.169
-0.118155
-0.0745248
-0.0605249
-0.0533491
-0.0445289
-0.0374144
-0.0306928
-0.0244187
-0.0185116
-0.0128547
-0.00733494
13.054
13.0291
12.9811
12.9103
12.8202
12.7121
12.5854
12.4378
12.2671
12.0707
11.846
11.5911
11.3035
10.9809
10.6207
10.2204
9.77704
9.28759
8.74865
8.1563
7.50632
6.7943
6.01557
5.16566
4.24044
3.23508
2.14529
0.966532
-0.305927
-1.6768
-3.15099
-4.73384
-6.43157
-8.25156
-10.2022
-12.2921
-14.5295
-16.9217
-19.4763
-22.2035
-25.1185
-28.241
-31.5912
-35.1859
-39.0396
-43.1695
-47.5956
-52.3313
-57.3777
-62.7238
-68.3412
-74.1764
-80.1485
-86.1534
-92.0743
-97.7977
-103.227
-108.291
-112.948
-117.179
-120.982
-124.37
-127.361
-129.985
-132.271
-134.252
-135.96
-137.425
-138.668
-139.715
-140.589
-141.307
-141.887
-142.339
-142.675
-142.9
-143.019
-143.035
-142.947
-142.755
-142.458
-142.057
-141.55
-140.938
-140.221
-139.403
-138.487
-137.474
-136.365
-135.152
-133.855
-132.42
-130.86
-129.09
-127.116
-124.831
-122.105
-119.393
-114.811
-0.118087
-0.0774674
-0.0638043
-0.05538
-0.0467717
-0.0388982
-0.0318036
-0.0250534
-0.0187077
-0.0126217
-0.00667931
14.5003
14.4733
14.4215
14.3452
14.2482
14.1324
13.9975
13.8411
13.6596
13.4498
13.2092
12.9357
12.6269
12.2803
11.8929
11.4618
10.9837
10.4551
9.87207
9.23039
8.5255
7.75261
6.90682
5.98327
4.97714
3.88369
2.6975
1.4134
0.0263144
-1.46877
-3.07688
-4.80339
-6.6544
-8.63718
-10.76
-13.0313
-15.4589
-18.0491
-20.8074
-23.741
-26.8612
-30.1836
-33.7246
-37.4965
-41.5073
-45.7648
-50.2776
-55.0492
-60.0719
-65.3269
-70.7822
-76.3886
-82.079
-87.7719
-93.378
-98.8099
-103.991
-108.86
-113.378
-117.52
-121.279
-124.659
-127.672
-130.338
-132.682
-134.728
-136.499
-138.035
-139.342
-140.448
-141.374
-142.137
-142.753
-143.234
-143.59
-143.83
-143.958
-143.977
-143.891
-143.699
-143.402
-143
-142.492
-141.877
-141.154
-140.325
-139.387
-138.338
-137.171
-135.871
-134.457
-132.843
-131.071
-129.024
-126.711
-124.026
-120.76
-117.521
-112.134
-0.112738
-0.0790554
-0.0668184
-0.0567648
-0.0486068
-0.0398841
-0.0326563
-0.0254711
-0.0188009
-0.0123879
-0.0061249
15.9668
15.938
15.8827
15.8012
15.6979
15.5764
15.4361
15.2725
15.081
14.8592
14.6047
14.3152
13.988
13.6201
13.2085
12.7497
12.2402
11.6758
11.0525
10.3655
9.60987
8.78054
7.87222
6.87956
5.7971
4.62101
3.34329
1.95888
0.462285
-1.15179
-2.88859
-4.75343
-6.75227
-8.89209
-11.1809
-13.6269
-16.2377
-19.0186
-21.9736
-25.1065
-28.4243
-31.938
-35.6596
-39.5977
-43.7558
-48.1347
-52.7345
-57.5505
-62.5695
-67.7685
-73.1142
-78.5613
-84.0527
-89.5219
-94.8976
-100.11
-105.096
-109.805
-114.199
-118.255
-121.962
-125.319
-128.334
-131.021
-133.399
-135.489
-137.316
-138.883
-140.231
-141.376
-142.337
-143.13
-143.77
-144.269
-144.639
-144.888
-145.022
-145.045
-144.96
-144.769
-144.473
-144.071
-143.564
-142.948
-142.222
-141.384
-140.429
-139.349
-138.134
-136.768
-135.26
-133.483
-131.546
-129.274
-126.677
-123.67
-119.968
-116.274
-110.24
-0.103618
-0.0795481
-0.0694672
-0.0575022
-0.0501042
-0.0403125
-0.0332475
-0.0255974
-0.0187561
-0.0121222
-0.00564942
17.4547
17.4242
17.3658
17.2794
17.1714
17.0468
16.9028
16.7325
16.5326
16.301
16.0351
15.7322
15.3893
15.0033
14.5707
14.0877
13.5504
12.9543
12.2948
11.5669
10.7652
9.88425
8.91834
7.8617
6.70846
5.45325
4.0906
2.61125
1.01051
-0.717194
-2.57735
-4.57529
-6.71676
-9.00835
-11.4576
-14.0724
-16.8602
-19.8259
-22.9723
-26.3004
-29.813
-33.5159
-37.4162
-41.5189
-45.8238
-50.3268
-55.0215
-59.8973
-64.9368
-70.1145
-75.3967
-80.7413
-86.098
-91.4107
-96.6203
-101.669
-106.505
-111.085
-115.375
-119.353
-123.007
-126.333
-129.336
-132.026
-134.418
-136.527
-138.371
-139.967
-141.339
-142.505
-143.485
-144.293
-144.945
-145.454
-145.83
-146.082
-146.217
-146.242
-146.158
-145.968
-145.674
-145.275
-144.77
-144.157
-143.432
-142.591
-141.626
-140.527
-139.28
-137.865
-136.281
-134.401
-132.34
-129.896
-127.078
-123.817
-119.811
-115.72
-109.225
-0.0964439
-0.0795169
-0.0715878
-0.0576048
-0.0510846
-0.0401932
-0.0334892
-0.0253618
-0.0185516
-0.0117934
-0.00523142
18.9648
18.9329
18.8716
18.7807
18.6707
18.545
18.3979
18.2223
18.0161
17.777
17.5022
17.1887
16.8333
16.4325
15.9825
15.4792
14.9182
14.2947
13.6037
12.8397
11.997
11.0696
10.0515
8.93632
7.71746
6.38764
4.94865
3.37875
1.67942
-0.156286
-2.13433
-4.26019
-6.53943
-8.97816
-11.5833
-14.3622
-17.3219
-20.4674
-23.8007
-27.3213
-31.0281
-34.9221
-39.0051
-43.2777
-47.7364
-52.3732
-57.1768
-62.1322
-67.2184
-72.4083
-77.6681
-82.958
-88.2326
-93.4431
-98.539
-103.472
-108.197
-112.677
-116.883
-120.794
-124.397
-127.689
-130.67
-133.349
-135.736
-137.845
-139.691
-141.292
-142.67
-143.841
-144.823
-145.633
-146.285
-146.793
-147.166
-147.416
-147.548
-147.57
-147.485
-147.296
-147.004
-146.61
-146.111
-145.506
-144.788
-143.952
-142.989
-141.886
-140.626
-139.185
-137.549
-135.608
-133.511
-130.945
-127.989
-124.548
-120.375
-115.933
-109.132
-0.0922091
-0.0795366
-0.0728403
-0.0570535
-0.0513727
-0.0394868
-0.0332798
-0.0247283
-0.0181545
-0.0113557
-0.00485068
20.4978
20.4645
20.4007
20.3064
20.1966
20.0713
19.9219
19.7429
19.5327
19.2886
19.0076
18.6865
18.3219
17.9099
17.4464
16.927
16.3468
15.7007
14.9832
14.1885
13.3103
12.3423
11.2779
10.1102
8.83239
7.43736
5.91947
4.26845
2.47729
0.539648
-1.55057
-3.79913
-6.21154
-8.79343
-11.5509
-14.4906
-17.6189
-20.9408
-24.4579
-28.1689
-32.0703
-36.1586
-40.4309
-44.8829
-49.5073
-54.2927
-59.224
-64.282
-69.4432
-74.6787
-79.9548
-85.2333
-90.4722
-95.6278
-100.656
-105.514
-110.163
-114.572
-118.713
-122.568
-126.125
-129.379
-132.33
-134.985
-137.353
-139.444
-141.275
-142.863
-144.228
-145.387
-146.357
-147.155
-147.795
-148.29
-148.653
-148.892
-149.016
-149.032
-148.943
-148.753
-148.464
-148.076
-147.587
-146.994
-146.291
-145.471
-144.523
-143.433
-142.182
-140.746
-139.101
-137.163
-135.042
-132.442
-129.446
-125.933
-121.669
-117.055
-110.027
-0.0921686
-0.0794717
-0.0731853
-0.0557218
-0.0508341
-0.0381111
-0.032527
-0.0236688
-0.0175199
-0.0107514
-0.00449373
22.0538
22.0195
21.9534
21.8575
21.7494
21.6256
21.4752
21.295
21.0832
20.8367
20.5524
20.2271
19.8568
19.4376
18.9648
18.4339
17.8394
17.1759
16.4375
15.6178
14.7102
13.7077
12.6033
11.3896
10.0591
8.60393
7.016
5.2904
3.41296
1.37957
-0.816851
-3.1827
-5.72375
-8.44533
-11.3528
-14.4516
-17.7475
-21.2448
-24.945
-28.8463
-32.9438
-37.231
-41.7005
-46.3437
-51.149
-56.1016
-61.1825
-66.3694
-71.636
-76.9517
-82.2825
-87.5908
-92.8372
-97.981
-102.982
-107.803
-112.409
-116.771
-120.865
-124.675
-128.189
-131.402
-134.316
-136.936
-139.268
-141.326
-143.125
-144.683
-146.018
-147.148
-148.09
-148.862
-149.477
-149.949
-150.291
-150.512
-150.622
-150.626
-150.531
-150.339
-150.053
-149.672
-149.196
-148.621
-147.94
-147.146
-146.228
-145.17
-143.954
-142.553
-140.944
-139.055
-136.968
-134.399
-131.45
-127.981
-123.716
-119.187
-112.042
-0.095747
-0.0779904
-0.0723295
-0.0531347
-0.049326
-0.03591
-0.0311411
-0.0221314
-0.0165923
-0.00994288
-0.00415677
23.633
23.5979
23.53
23.4346
23.3293
23.2079
23.0583
22.8792
22.6681
22.422
22.1377
21.8116
21.4395
21.0172
20.5398
20.0022
19.3987
18.7235
17.9701
17.1317
16.2011
15.171
14.0334
12.7807
11.4044
9.89632
8.24771
6.45038
4.49453
2.37243
0.0762795
-2.40099
-5.06592
-7.92393
-10.9797
-14.2376
-17.7023
-21.377
-25.263
-29.3581
-33.6564
-38.1494
-42.8264
-47.6746
-52.6787
-57.8199
-63.0758
-68.4206
-73.8252
-79.2571
-84.6812
-90.0598
-95.3545
-100.527
-105.538
-110.355
-114.945
-119.283
-123.345
-127.118
-130.592
-133.762
-136.631
-139.205
-141.488
-143.496
-145.246
-146.755
-148.043
-149.127
-150.025
-150.755
-151.332
-151.77
-152.081
-152.276
-152.364
-152.353
-152.247
-152.051
-151.767
-151.395
-150.935
-150.383
-149.733
-148.976
-148.103
-147.097
-145.94
-144.606
-143.076
-141.281
-139.3
-136.798
-133.992
-130.692
-126.561
-122.347
-115.301
-0.109432
-0.0710279
-0.0704919
-0.0485799
-0.0467974
-0.0326961
-0.0290498
-0.0200682
-0.0153231
-0.00892547
-0.00382164
25.2349
25.1993
25.1301
25.0372
24.9364
24.8181
24.6712
24.4953
24.2877
24.045
23.764
23.4407
23.0709
22.65
22.1728
21.6338
21.0271
20.3461
19.5842
18.7338
17.7874
16.7368
15.5737
14.2895
12.8752
11.3217
9.61953
7.75896
5.73176
3.52753
1.13853
-1.44352
-4.22709
-7.21808
-10.4207
-13.8386
-17.4748
-21.3318
-25.4098
-29.7062
-34.2143
-38.9242
-43.8225
-48.8933
-54.1172
-59.4719
-64.9311
-70.4657
-76.0432
-81.6286
-87.1849
-92.6736
-98.0558
-103.294
-108.351
-113.193
-117.793
-122.124
-126.167
-129.91
-133.344
-136.467
-139.283
-141.798
-144.017
-145.959
-147.642
-149.084
-150.306
-151.326
-152.164
-152.836
-153.361
-153.751
-154.02
-154.18
-154.24
-154.206
-154.086
-153.884
-153.602
-153.24
-152.799
-152.276
-151.664
-150.956
-150.141
-149.205
-148.131
-146.895
-145.479
-143.815
-141.976
-139.666
-137.067
-134.052
-130.204
-126.509
-119.896
-0.127247
-0.0571563
-0.0680843
-0.0415984
-0.0431037
-0.0283513
-0.0261937
-0.0174627
-0.0136908
-0.00771767
-0.00345513
26.8588
26.8227
26.7531
26.6643
26.5693
26.4552
26.3133
26.1431
25.9416
25.7055
25.4313
25.1148
24.7517
24.337
23.8651
23.3304
22.7264
22.0462
21.2826
20.4276
19.4729
18.4099
17.2294
15.922
14.478
12.8875
11.1401
9.22534
7.13276
4.8537
2.37954
-0.299004
-3.1954
-6.31577
-9.66379
-13.2424
-17.0538
-21.0994
-25.3785
-29.8874
-34.6189
-39.5614
-44.6997
-50.0147
-55.4839
-61.0808
-66.7755
-72.5348
-78.3226
-84.1007
-89.829
-95.4672
-100.975
-106.314
-111.448
-116.344
-120.974
-125.315
-129.35
-133.067
-136.461
-139.531
-142.282
-144.719
-146.862
-148.722
-150.319
-151.675
-152.812
-153.749
-154.507
-155.106
-155.562
-155.891
-156.107
-156.221
-156.243
-156.182
-156.043
-155.831
-155.55
-155.2
-154.782
-154.291
-153.725
-153.075
-152.333
-151.485
-150.515
-149.403
-148.135
-146.64
-144.996
-142.94
-140.628
-137.999
-134.572
-131.553
-125.784
-0.141092
-0.0421416
-0.0649908
-0.0332012
-0.0383558
-0.0230696
-0.0225899
-0.01436
-0.0117114
-0.00634276
-0.00303576
28.5036
28.467
28.3981
28.3147
28.2265
28.1183
27.9837
27.8218
27.6293
27.4031
27.1393
26.8338
26.4819
26.0783
25.6174
25.0929
24.498
23.8255
23.0676
22.2158
21.2611
20.1942
19.0052
17.6838
16.2194
14.6011
12.8175
10.857
8.70783
6.36057
3.80816
1.04579
-1.95777
-5.20426
-8.69602
-12.4359
-16.426
-20.6671
-25.1577
-29.8931
-34.8649
-40.0603
-45.462
-51.0481
-56.7927
-62.6654
-68.6321
-74.6551
-80.694
-86.7063
-92.6482
-98.4763
-104.148
-109.623
-114.864
-119.839
-124.52
-128.885
-132.919
-136.613
-139.964
-142.973
-145.65
-147.999
-150.041
-151.797
-153.286
-154.534
-155.563
-156.396
-157.056
-157.562
-157.933
-158.185
-158.334
-158.392
-158.368
-158.271
-158.108
-157.885
-157.603
-157.265
-156.871
-156.418
-155.904
-155.322
-154.664
-153.92
-153.074
-152.11
-151.019
-149.729
-148.322
-146.573
-144.607
-142.435
-139.515
-137.238
-132.607
-0.157155
-0.0311695
-0.0596006
-0.0244867
-0.0308571
-0.0167962
-0.0179139
-0.0107931
-0.00939631
-0.00483377
-0.00256282
30.1679
30.131
30.064
29.9872
29.9066
29.8063
29.6812
29.5301
29.3497
29.1367
28.8873
28.5971
28.2611
27.874
27.4297
26.9217
26.3428
25.6854
24.941
24.1008
23.155
22.0936
20.9057
19.5803
18.1058
16.47
14.6604
12.6639
10.4669
8.05645
5.42855
2.61086
-0.499346
-3.87052
-7.50425
-11.4054
-15.5772
-20.0206
-24.7337
-29.7109
-34.9427
-40.4147
-46.1075
-51.9964
-58.0518
-64.2392
-70.5196
-76.8503
-83.1855
-89.4776
-95.678
-101.739
-107.614
-113.26
-118.639
-123.718
-128.468
-132.87
-136.91
-140.581
-143.882
-146.819
-149.405
-151.647
-153.568
-155.195
-156.552
-157.666
-158.564
-159.269
-159.808
-160.201
-160.469
-160.629
-160.696
-160.685
-160.605
-160.465
-160.272
-160.032
-159.748
-159.422
-159.054
-158.643
-158.187
-157.68
-157.117
-156.489
-155.784
-154.988
-154.098
-153.045
-151.911
-150.507
-148.929
-147.248
-144.836
-143.235
-139.48
-0.137338
-0.00733043
-0.0252723
-0.010044
-0.0194806
-0.0102809
-0.0124133
-0.0072079
-0.00685886
-0.00329131
-0.00204299
31.8498
31.813
31.7487
31.6799
31.6082
31.5173
31.404
31.2664
31.1012
30.905
30.674
30.4035
30.0885
29.7233
29.3017
28.8169
28.2612
27.6265
26.9041
26.0843
25.1569
24.111
22.9349
21.6166
20.1432
18.5015
16.6776
14.6567
12.4225
9.95472
7.21718
4.44472
1.1936
-2.30268
-6.07516
-10.1364
-14.4921
-19.1444
-24.0912
-29.3266
-34.8399
-40.6151
-46.6306
-52.8586
-59.2656
-65.8123
-72.4543
-79.1427
-85.8255
-92.4485
-98.9569
-105.297
-111.418
-117.274
-122.823
-128.03
-132.868
-137.317
-141.366
-145.01
-148.253
-151.103
-153.57
-155.684
-157.46
-158.931
-160.127
-161.079
-161.816
-162.368
-162.761
-163.019
-163.163
-163.213
-163.184
-163.09
-162.943
-162.751
-162.522
-162.261
-161.972
-161.656
-161.315
-160.949
-160.555
-160.13
-159.67
-159.168
-158.617
-158.006
-157.336
-156.547
-155.713
-154.691
-153.521
-152.355
-150.381
-149.337
-144.475
-0.15893
-0.00635515
-0.0301842
-0.011097
-0.00917995
-0.00536157
-0.00646772
-0.00366462
-0.00415269
-0.00178167
-0.00147992
33.5472
33.5106
33.4501
33.3902
33.3289
33.2493
33.15
33.0286
32.8818
32.7061
32.4974
32.2513
31.9624
31.625
31.2324
30.7776
30.2526
29.6489
28.9573
28.1675
27.2687
26.2491
25.0962
23.7968
22.3371
20.7024
18.8777
16.8468
14.5934
12.1011
9.35929
6.39415
3.10094
-0.492499
-4.39408
-8.6125
-13.1541
-18.0216
-23.2137
-28.7245
-34.5424
-40.6502
-47.0237
-53.6319
-60.4371
-67.3943
-74.4529
-81.5566
-88.6456
-95.6577
-102.53
-109.202
-115.617
-121.722
-127.474
-132.835
-137.778
-142.283
-146.341
-149.952
-153.121
-155.866
-158.197
-160.145
-161.741
-163.022
-164.022
-164.778
-165.324
-165.692
-165.911
-166.009
-166.008
-165.928
-165.786
-165.596
-165.371
-165.118
-164.845
-164.558
-164.259
-163.953
-163.639
-163.317
-162.988
-162.649
-162.297
-161.93
-161.542
-161.127
-160.691
-160.185
-159.679
-159.067
-158.345
-157.748
-156.356
-155.914
-141.503
0.30196
-0.0318215
0.0707165
-0.0015833
0.00988425
0.00235899
-0.000225794
-0.000503734
-0.00157572
-0.000491497
-0.000916999
35.2571
35.2211
35.1654
35.1155
35.0659
34.9995
34.9165
34.814
34.6888
34.5373
34.3553
34.1383
33.8809
33.577
33.22
32.8024
32.316
31.7519
31.1003
30.3506
29.4911
28.5094
27.392
26.1247
24.6922
23.0788
21.2677
19.2415
16.9825
14.4733
11.6985
8.64531
5.27765
1.58679
-2.43958
-6.81347
-11.5428
-16.6323
-22.082
-27.8865
-34.0344
-40.507
-47.278
-54.3131
-61.5694
-68.9961
-76.5346
-84.1203
-91.6834
-99.1517
-106.453
-113.516
-120.277
-126.677
-132.667
-138.208
-143.271
-147.838
-151.903
-155.467
-158.543
-161.152
-163.313
-165.06
-166.436
-167.485
-168.249
-168.77
-169.087
-169.237
-169.253
-169.163
-168.993
-168.762
-168.49
-168.19
-167.874
-167.55
-167.226
-166.906
-166.595
-166.294
-166.006
-165.73
-165.466
-165.214
-164.974
-164.744
-164.524
-164.312
-164.118
-163.908
-163.746
-163.568
-163.352
-163.384
-162.849
-163.168
-132.439
0.231367
-0.0341133
0.0589158
-0.00688071
0.0217461
0.00232108
0.00520291
0.00183612
0.000710483
0.000574086
-0.000390922
36.9762
36.9411
36.8915
36.8526
36.8159
36.7647
36.7003
36.6196
36.5192
36.3956
36.2446
36.0616
35.841
35.5768
35.262
34.8891
34.4495
33.9339
33.3322
32.6331
31.8244
30.893
29.8243
28.603
27.2126
25.6358
23.8542
21.8484
19.5986
17.0846
14.2859
11.1811
7.74301
3.95995
-0.187715
-4.71522
-9.63435
-14.9528
-20.673
-26.7913
-33.2966
-40.1698
-47.3828
-54.8974
-62.6658
-70.6298
-78.7222
-86.8674
-94.9839
-102.987
-110.791
-118.314
-125.48
-132.224
-138.491
-144.238
-149.436
-154.068
-158.13
-161.629
-164.584
-167.014
-168.964
-170.465
-171.573
-172.341
-172.821
-173.06
-173.107
-173
-172.778
-172.47
-172.104
-171.702
-171.281
-170.855
-170.436
-170.031
-169.648
-169.29
-168.961
-168.663
-168.398
-168.165
-167.966
-167.801
-167.672
-167.579
-167.527
-167.517
-167.565
-167.652
-167.841
-168.104
-168.441
-169.137
-169.681
-171.004
-121.546
0.133542
0.00474916
0.0451962
0.0171943
0.0191163
0.00631638
0.00792162
0.00304097
0.00243979
0.00127338
3.41452e-05
38.7006
38.6669
38.6244
38.5977
38.5751
38.5411
38.4977
38.4415
38.3693
38.2774
38.1617
38.0175
37.8393
37.6208
37.3552
37.0346
36.6502
36.1924
35.6507
35.0134
34.2676
33.3995
32.3936
31.2335
29.9013
28.378
26.6432
24.6756
22.4524
19.9504
17.1449
14.0106
10.5206
6.65014
2.38794
-2.29009
-7.40007
-12.9541
-18.9584
-25.4118
-32.3049
-39.6186
-47.3233
-55.3777
-63.7281
-72.3085
-81.0409
-89.8371
-98.6006
-107.23
-115.625
-123.686
-131.327
-138.471
-145.055
-151.035
-156.381
-161.076
-165.12
-168.528
-171.325
-173.537
-175.211
-176.406
-177.185
-177.612
-177.749
-177.654
-177.381
-176.974
-176.475
-175.917
-175.328
-174.73
-174.141
-173.574
-173.039
-172.543
-172.093
-171.691
-171.339
-171.04
-170.794
-170.602
-170.465
-170.384
-170.363
-170.404
-170.513
-170.699
-170.979
-171.352
-171.881
-172.565
-173.448
-174.75
-176.337
-178.454
-111.548
0.00618565
0.00676538
0.0256714
0.0122554
0.015915
0.00805616
0.00913262
0.00442685
0.00358624
0.00188429
0.000335568
40.4262
40.3946
40.3601
40.3463
40.3391
40.3245
40.3045
40.2756
40.2347
40.1783
40.1023
40.0018
39.8714
39.705
39.4955
39.2348
38.9143
38.5239
38.0527
37.4887
36.8186
36.0276
35.0995
34.0168
32.7601
31.3086
29.6401
27.7305
25.5544
23.0848
20.2935
17.1508
13.6265
9.69083
5.31879
0.492683
-4.80664
-10.6015
-16.9031
-23.7144
-31.0281
-38.8265
-47.0793
-55.7421
-64.7556
-74.0446
-83.519
-93.0746
-102.597
-111.963
-121.052
-129.746
-137.94
-145.546
-152.494
-158.735
-164.237
-168.988
-172.991
-176.268
-178.854
-180.785
-182.117
-182.932
-183.307
-183.32
-183.047
-182.555
-181.904
-181.148
-180.33
-179.486
-178.644
-177.826
-177.049
-176.325
-175.662
-175.066
-174.54
-174.088
-173.709
-173.404
-173.174
-173.019
-172.94
-172.939
-173.019
-173.185
-173.446
-173.813
-174.309
-174.941
-175.777
-176.836
-178.205
-179.984
-182.537
-185.029
-103.153
-0.0659508
0.0133991
0.00848384
0.0114563
0.0126417
0.00832403
0.00900661
0.00474496
0.00420287
0.00215744
0.000485401
42.1488
42.1197
42.0942
42.0939
42.1035
42.1103
42.1159
42.1171
42.1108
42.0935
42.0613
42.0094
41.9324
41.8242
41.6777
41.4849
41.2369
40.9236
40.5339
40.0553
39.4739
38.7746
37.9402
36.9521
35.7895
34.43
32.8489
31.0198
28.9139
26.5007
23.7476
20.6205
17.0841
13.1026
8.64105
3.67472
-1.8154
-7.85383
-14.4655
-21.6577
-29.4273
-37.759
-46.6231
-55.9729
-65.7434
-75.8495
-86.1868
-96.6322
-107.048
-117.285
-127.193
-136.631
-145.471
-153.612
-160.973
-167.501
-173.165
-177.957
-181.887
-184.983
-187.281
-188.853
-189.755
-190.097
-189.977
-189.489
-188.724
-187.761
-186.67
-185.509
-184.325
-183.156
-182.029
-180.966
-179.981
-179.084
-178.281
-177.576
-176.969
-176.46
-176.049
-175.735
-175.517
-175.395
-175.368
-175.44
-175.613
-175.895
-176.293
-176.823
-177.507
-178.363
-179.456
-180.818
-182.583
-184.679
-187.869
-190.56
-96.4088
-0.0170046
0.0200718
0.00724385
0.0150233
0.0119762
0.00956571
0.00917784
0.00546247
0.00462354
0.00238563
0.00059284
43.8636
43.8374
43.822
43.8358
43.8635
43.8933
43.9267
43.9606
43.9919
44.0175
44.0332
44.0346
44.0164
43.9725
43.8959
43.7788
43.6122
43.3858
43.0885
42.7076
42.2287
41.6362
40.9122
40.037
38.9885
37.7425
36.2723
34.5484
32.539
30.2094
27.5226
24.439
20.9172
16.9146
12.3885
7.29695
1.61972
-4.66271
-11.5963
-19.1926
-27.4548
-36.3727
-45.9187
-56.0452
-66.6817
-77.733
-89.0781
-100.571
-112.045
-123.316
-134.198
-144.513
-154.111
-162.868
-170.697
-177.539
-183.366
-188.175
-191.983
-194.832
-196.762
-197.852
-198.212
-197.966
-197.238
-196.142
-194.787
-193.268
-191.663
-190.035
-188.434
-186.898
-185.454
-184.121
-182.909
-181.825
-180.872
-180.049
-179.355
-178.787
-178.34
-178.014
-177.804
-177.71
-177.73
-177.867
-178.125
-178.508
-179.027
-179.696
-180.537
-181.574
-182.862
-184.434
-186.432
-188.727
-192.143
-194.966
-91.4064
0.01353
0.0219916
0.0142929
0.0150173
0.0131244
0.00988574
0.0093835
0.0058679
0.00482578
0.00254099
0.000673908
45.5654
45.5424
45.5376
45.5665
45.6135
45.668
45.7312
45.8002
45.8722
45.9439
46.0115
46.0708
46.1166
46.1429
46.1431
46.1093
46.0327
45.9033
45.7095
45.4387
45.0764
44.6063
44.01
43.267
42.3538
41.2446
39.9105
38.3192
36.4355
34.2205
31.632
28.6245
25.1496
21.1567
16.5938
11.4084
5.54677
-0.969054
-8.23929
-16.2617
-25.0538
-34.6145
-44.9207
-55.9257
-67.5549
-79.703
-92.2307
-104.965
-117.701
-130.209
-142.255
-153.612
-164.101
-173.576
-181.933
-189.113
-195.095
-199.883
-203.501
-206.008
-207.448
-207.922
-207.589
-206.608
-205.132
-203.3
-201.24
-199.064
-196.861
-194.698
-192.625
-190.679
-188.885
-187.256
-185.8
-184.517
-183.405
-182.46
-181.675
-181.044
-180.561
-180.219
-180.015
-179.945
-180.007
-180.203
-180.533
-181.005
-181.627
-182.411
-183.378
-184.55
-185.973
-187.673
-189.795
-192.209
-195.64
-199.084
-88.1964
0.0334442
0.0252725
0.0195133
0.0163995
0.0142259