/*--------------------------------*- C++ -*----------------------------------*\
| =========                 |                                                 |
| \\      /  F ield         | OpenFOAM: The Open Source CFD Toolbox           |
|  \\    /   O peration     | Version:  v2106                                 |
|   \\  /    A nd           | Website:  www.openfoam.com                      |
|    \\/     M anipulation  |                                                 |
\*---------------------------------------------------------------------------*/
FoamFile
{
    version     2.0;
    format      ascii;
    arch        "LSB;label=32;scalar=64";
    class       surfaceScalarField;
    location    "1.4";
    object      phi;
}
// * * * * * * * * * * * * * * * * * * * * * * * * * * * * * * * * * * * * * //

dimensions      [0 3 -1 0 0 0 0];

oriented        oriented;

internalField   nonuniform List<scalar> 
59425
(
-1.56386e-08
-9.29937e-06
-3.03992e-08
-9.39235e-06
-4.37936e-08
-9.40115e-06
-5.59502e-08
-9.40471e-06
-6.72756e-08
-9.40866e-06
-7.80368e-08
-9.41458e-06
-8.83296e-08
-9.42323e-06
-9.81233e-08
-9.43493e-06
-1.07312e-07
-9.44963e-06
-1.1576e-07
-9.46702e-06
-1.23342e-07
-9.48657e-06
-1.29969e-07
-9.50765e-06
-1.35592e-07
-9.52955e-06
-1.402e-07
-9.55157e-06
-1.438e-07
-9.57301e-06
-1.46395e-07
-9.59322e-06
-1.47974e-07
-9.61149e-06
-1.485e-07
-9.62711e-06
-1.47917e-07
-9.63933e-06
-1.46157e-07
-9.64745e-06
-1.4314e-07
-9.65074e-06
-1.38786e-07
-9.64841e-06
-1.33024e-07
-9.63963e-06
-1.25808e-07
-9.6235e-06
-1.17143e-07
-9.59916e-06
-1.07044e-07
-9.5657e-06
-9.56214e-08
-9.52191e-06
-8.30407e-08
-9.46671e-06
-6.92233e-08
-9.39907e-06
-5.40073e-08
-9.31784e-06
-3.73018e-08
-9.22192e-06
-1.90511e-08
-9.11021e-06
7.80582e-10
-8.98154e-06
2.22047e-08
-8.83469e-06
4.5227e-08
-8.66843e-06
6.98546e-08
-8.48147e-06
9.60851e-08
-8.27244e-06
1.2392e-07
-8.03988e-06
1.53377e-07
-7.78219e-06
1.8451e-07
-7.4976e-06
2.17434e-07
-7.18405e-06
2.52381e-07
-6.83913e-06
2.89787e-07
-6.45987e-06
3.30488e-07
-6.04251e-06
3.76138e-07
-5.58217e-06
4.30225e-07
-5.07238e-06
5.00694e-07
-4.50488e-06
6.06952e-07
-3.87035e-06
7.96453e-07
-3.16103e-06
1.16439e-06
-2.36052e-06
1.84854e-06
-1.39261e-06
2.96481e-06
-2.48095e-08
4.81635e-06
1.11805e-06
6.45678e-06
1.37979e-06
7.28087e-06
6.54108e-07
7.67459e-06
-3.19336e-07
7.7967e-06
-9.54055e-07
7.78277e-06
-1.41465e-06
7.68944e-06
-1.7433e-06
7.54409e-06
-1.96979e-06
7.36236e-06
-2.11395e-06
7.15211e-06
-2.1941e-06
6.91932e-06
-2.22189e-06
6.66911e-06
-2.20425e-06
6.4038e-06
-2.1479e-06
6.12626e-06
-2.05518e-06
5.84461e-06
-1.92298e-06
5.56941e-06
-1.75126e-06
5.31194e-06
-1.54305e-06
5.08465e-06
-1.30281e-06
4.89957e-06
-1.0394e-06
4.76529e-06
-7.6828e-07
4.68399e-06
-5.12891e-07
4.64225e-06
-2.99122e-07
4.60971e-06
-1.58516e-07
4.55098e-06
-1.08394e-07
4.43835e-06
-1.41014e-07
4.25257e-06
-2.33935e-07
3.99023e-06
-3.60388e-07
3.65636e-06
-4.97967e-07
3.25749e-06
-6.33023e-07
2.7988e-06
-7.57952e-07
2.28348e-06
-8.67862e-07
1.71181e-06
-9.59368e-07
1.0813e-06
-1.02882e-06
3.87928e-07
-1.0703e-06
-3.71876e-07
-1.07404e-06
-1.19522e-06
-1.02374e-06
-2.06595e-06
-8.88471e-07
-2.93886e-06
-6.26534e-07
-3.69595e-06
-1.77378e-07
-4.08958e-06
5.84762e-07
-4.19938e-06
1.41117e-06
-5.03636e-06
1.18255e-06
-6.08598e-06
1.15276e-06
-6.95851e-06
1.76678e-06
-8.00091e-06
1.95826e-06
-8.70885e-06
1.75626e-06
-8.57219e-06
5.15779e-07
-5.96639e-06
-4.36434e-06
-7.52106e-06
-5.14504e-06
-1.19967e-05
-1.94037e-05
-1.8885e-05
-2.16885e-05
-2.05634e-05
-1.42348e-05
-2.25285e-05
-1.28588e-05
-2.27393e-05
-8.67363e-06
-2.2831e-05
-6.30312e-06
-2.17434e-05
-3.17286e-06
-2.06276e-05
-1.46208e-06
-5.09312e-07
-1.51248e-08
-9.28424e-06
-2.99332e-08
-9.37754e-06
-4.38715e-08
-9.38721e-06
-5.69209e-08
-9.39166e-06
-6.9194e-08
-9.39638e-06
-8.07764e-08
-9.40299e-06
-9.16595e-08
-9.41234e-06
-1.01757e-07
-9.42483e-06
-1.10945e-07
-9.44044e-06
-1.19098e-07
-9.45887e-06
-1.26117e-07
-9.47955e-06
-1.31938e-07
-9.50183e-06
-1.3653e-07
-9.52496e-06
-1.39874e-07
-9.54822e-06
-1.41951e-07
-9.57093e-06
-1.42726e-07
-9.59244e-06
-1.42134e-07
-9.61209e-06
-1.40083e-07
-9.62916e-06
-1.3646e-07
-9.64295e-06
-1.31149e-07
-9.65276e-06
-1.24032e-07
-9.65785e-06
-1.14995e-07
-9.65745e-06
-1.0394e-07
-9.65068e-06
-9.07936e-08
-9.63665e-06
-7.55254e-08
-9.61443e-06
-5.81243e-08
-9.5831e-06
-3.84803e-08
-9.54156e-06
-1.64716e-08
-9.48871e-06
8.05376e-09
-9.42359e-06
3.52425e-08
-9.34503e-06
6.51893e-08
-9.25187e-06
9.79625e-08
-9.14298e-06
1.33614e-07
-9.01719e-06
1.72198e-07
-8.87327e-06
2.13769e-07
-8.71e-06
2.58386e-07
-8.52608e-06
3.06134e-07
-8.32019e-06
3.5714e-07
-8.09089e-06
4.116e-07
-7.83665e-06
4.69822e-07
-7.55582e-06
5.32293e-07
-7.24652e-06
5.99783e-07
-6.90662e-06
6.73515e-07
-6.5336e-06
7.55451e-07
-6.12445e-06
8.48779e-07
-5.6755e-06
9.58668e-07
-5.18227e-06
1.09317e-06
-4.63938e-06
1.26316e-06
-4.04033e-06
1.47809e-06
-3.37596e-06
1.74714e-06
-2.62956e-06
2.15261e-06
-1.79804e-06
3.0924e-06
-9.64651e-07
4.55256e-06
-3.42222e-07
6.06131e-06
-1.28983e-07
7.06244e-06
-3.47014e-07
7.51643e-06
-7.73328e-07
7.72657e-06
-1.1642e-06
7.78886e-06
-1.47694e-06
7.75665e-06
-1.7111e-06
7.66118e-06
-1.87432e-06
7.52133e-06
-1.9741e-06
7.3474e-06
-2.02017e-06
7.14656e-06
-2.02106e-06
6.9242e-06
-1.9819e-06
6.68322e-06
-1.90692e-06
6.42663e-06
-1.79858e-06
6.1615e-06
-1.65785e-06
5.8969e-06
-1.48666e-06
5.64263e-06
-1.28878e-06
5.40964e-06
-1.06983e-06
5.20859e-06
-8.38343e-07
5.0471e-06
-6.06786e-07
4.92555e-06
-3.91345e-07
4.8371e-06
-2.10677e-07
4.76223e-06
-8.36455e-08
4.67141e-06
-1.75696e-08
4.53221e-06
-1.81929e-09
4.32965e-06
-3.13773e-08
4.06029e-06
-9.10208e-08
3.7285e-06
-1.66186e-07
3.34033e-06
-2.44844e-07
2.90067e-06
-3.183e-07
2.41284e-06
-3.80029e-07
1.87773e-06
-4.24264e-07
1.29365e-06
-4.44742e-07
6.56794e-07
-4.33443e-07
-3.82249e-08
-3.79024e-07
-7.95278e-07
-2.66688e-07
-1.61201e-06
-7.17452e-08
-2.44552e-06
2.06979e-07
-3.22381e-06
6.00923e-07
-3.74227e-06
1.1032e-06
-3.95474e-06
1.62364e-06
-4.59644e-06
1.82426e-06
-5.55911e-06
2.11543e-06
-6.4371e-06
2.64477e-06
-7.45001e-06
2.97115e-06
-8.20958e-06
2.51584e-06
-7.90759e-06
2.13789e-07
-3.78739e-06
-8.48454e-06
-6.58073e-06
-2.35169e-06
-1.13786e-05
-1.46059e-05
-1.70546e-05
-1.60125e-05
-1.8656e-05
-1.26334e-05
-2.02776e-05
-1.12373e-05
-2.05943e-05
-8.35688e-06
-2.06768e-05
-6.22064e-06
-1.98927e-05
-3.95692e-06
-1.90446e-05
-2.31017e-06
-1.0456e-06
-1.62245e-08
-9.26802e-06
-3.22883e-08
-9.36147e-06
-4.76308e-08
-9.37187e-06
-6.2206e-08
-9.37708e-06
-7.60001e-08
-9.38259e-06
-8.89495e-08
-9.39004e-06
-1.00932e-07
-9.40036e-06
-1.118e-07
-9.41396e-06
-1.21424e-07
-9.43082e-06
-1.29707e-07
-9.45058e-06
-1.36593e-07
-9.47267e-06
-1.4204e-07
-9.49638e-06
-1.46004e-07
-9.521e-06
-1.48423e-07
-9.5458e-06
-1.49209e-07
-9.57015e-06
-1.48245e-07
-9.59341e-06
-1.45385e-07
-9.61495e-06
-1.40458e-07
-9.63409e-06
-1.33284e-07
-9.65012e-06
-1.23685e-07
-9.66236e-06
-1.11494e-07
-9.67004e-06
-9.65559e-08
-9.67239e-06
-7.87229e-08
-9.66852e-06
-5.78501e-08
-9.65752e-06
-3.38324e-08
-9.63844e-06
-6.62676e-09
-9.61031e-06
2.39866e-08
-9.57217e-06
5.81637e-08
-9.52289e-06
9.6012e-08
-9.46144e-06
1.37673e-07
-9.38669e-06
1.83269e-07
-9.29747e-06
2.32901e-07
-9.19262e-06
2.8666e-07
-9.07095e-06
3.44636e-07
-8.93125e-06
4.06928e-07
-8.77229e-06
4.73652e-07
-8.59281e-06
5.44969e-07
-8.3915e-06
6.21105e-07
-8.16702e-06
7.024e-07
-7.91795e-06
7.89359e-07
-7.64278e-06
8.82744e-07
-7.3399e-06
9.83703e-07
-7.00757e-06
1.09397e-06
-6.64386e-06
1.21616e-06
-6.24664e-06
1.35428e-06
-5.81362e-06
1.51441e-06
-5.3424e-06
1.70582e-06
-4.83079e-06
1.94291e-06
-4.27743e-06
2.25033e-06
-3.68342e-06
2.678e-06
-3.05729e-06
3.30509e-06
-2.42522e-06
4.15326e-06
-1.81284e-06
5.09716e-06
-1.28604e-06
5.97776e-06
-1.00954e-06
6.65746e-06
-1.02672e-06
7.09707e-06
-1.21295e-06
7.35782e-06
-1.42496e-06
7.49071e-06
-1.60983e-06
7.53124e-06
-1.75162e-06
7.50196e-06
-1.84503e-06
7.4185e-06
-1.89064e-06
7.29361e-06
-1.89529e-06
7.13627e-06
-1.86372e-06
6.9531e-06
-1.79872e-06
6.74949e-06
-1.70331e-06
6.53091e-06
-1.58e-06
6.30373e-06
-1.43067e-06
6.07482e-06
-1.25775e-06
5.85112e-06
-1.06507e-06
5.63937e-06
-8.58088e-07
5.44515e-06
-6.44122e-07
5.27128e-06
-4.32908e-07
5.1163e-06
-2.36369e-07
4.97354e-06
-6.7913e-08
4.82827e-06
6.16197e-08
4.66227e-06
1.48432e-07
4.46497e-06
1.95476e-07
4.22432e-06
2.09272e-07
3.93483e-06
1.98468e-07
3.59532e-06
1.73321e-07
3.20699e-06
1.43481e-07
2.77175e-06
1.16946e-07
2.29134e-06
1.00378e-07
1.76712e-06
9.99466e-08
1.2003e-06
1.22081e-07
5.92925e-07
1.73929e-07
-5.01604e-08
2.64059e-07
-7.20696e-07
4.03844e-07
-1.39545e-06
6.02999e-07
-2.06277e-06
8.743e-07
-2.68862e-06
1.22675e-06
-3.23006e-06
1.64465e-06
-3.70191e-06
2.09549e-06
-4.32966e-06
2.45199e-06
-5.05978e-06
2.84554e-06
-5.76272e-06
3.34771e-06
-6.52379e-06
3.73223e-06
-7.3528e-06
3.34486e-06
-8.17337e-06
1.03436e-06
-1.02923e-05
-6.36565e-06
-1.09758e-05
-1.6682e-06
-1.22321e-05
-1.33496e-05
-1.47806e-05
-1.34639e-05
-1.6192e-05
-1.1222e-05
-1.74991e-05
-9.93023e-06
-1.80711e-05
-7.78486e-06
-1.83429e-05
-5.94888e-06
-1.81968e-05
-4.10299e-06
-1.79551e-05
-2.55185e-06
-1.23937e-06
-1.82925e-08
-9.24973e-06
-3.65131e-08
-9.34325e-06
-5.40392e-08
-9.35434e-06
-7.07764e-08
-9.36035e-06
-8.66282e-08
-9.36674e-06
-1.01423e-07
-9.37525e-06
-1.14953e-07
-9.38683e-06
-1.27046e-07
-9.40187e-06
-1.37594e-07
-9.42027e-06
-1.46553e-07
-9.44162e-06
-1.53894e-07
-9.46533e-06
-1.5956e-07
-9.49072e-06
-1.63452e-07
-9.51711e-06
-1.65421e-07
-9.54383e-06
-1.65285e-07
-9.57028e-06
-1.62837e-07
-9.59585e-06
-1.57855e-07
-9.61993e-06
-1.50101e-07
-9.64184e-06
-1.39341e-07
-9.66088e-06
-1.25349e-07
-9.67635e-06
-1.0791e-07
-9.68748e-06
-8.683e-08
-9.69347e-06
-6.19312e-08
-9.69342e-06
-3.30649e-08
-9.68639e-06
-2.14583e-10
-9.67129e-06
3.67637e-08
-9.64728e-06
7.81295e-08
-9.61353e-06
1.2418e-07
-9.56894e-06
1.75092e-07
-9.51235e-06
2.31014e-07
-9.44261e-06
2.92073e-07
-9.35853e-06
3.58386e-07
-9.25893e-06
4.30064e-07
-9.14262e-06
5.07223e-07
-9.0084e-06
5.89988e-07
-8.85505e-06
6.78506e-07
-8.68132e-06
7.7298e-07
-8.48598e-06
8.73697e-07
-8.26774e-06
9.81077e-07
-8.02533e-06
1.09574e-06
-7.75744e-06
1.21859e-06
-7.46275e-06
1.35094e-06
-7.13992e-06
1.49473e-06
-6.78765e-06
1.65275e-06
-6.40467e-06
1.82908e-06
-5.98995e-06
2.02955e-06
-5.54287e-06
2.26248e-06
-5.06371e-06
2.53956e-06
-4.5545e-06
2.87669e-06
-4.02053e-06
3.29236e-06
-3.47284e-06
3.79817e-06
-2.93093e-06
4.40604e-06
-2.42069e-06
5.11484e-06
-1.99484e-06
5.84515e-06
-1.73988e-06
6.46883e-06
-1.65042e-06
6.92334e-06
-1.66747e-06
7.22549e-06
-1.72709e-06
7.40623e-06
-1.79056e-06
7.49223e-06
-1.83763e-06
7.5056e-06
-1.8584e-06
7.46355e-06
-1.8486e-06
7.3773e-06
-1.80904e-06
7.25445e-06
-1.74086e-06
7.10157e-06
-1.64584e-06
6.92459e-06
-1.52633e-06
6.72926e-06
-1.38468e-06
6.52158e-06
-1.22298e-06
6.30744e-06
-1.04362e-06
6.09235e-06
-8.49978e-07
5.88138e-06
-6.47116e-07
5.67873e-06
-4.41475e-07
5.48664e-06
-2.40818e-07
5.30341e-06
-5.31342e-08
5.12521e-06
1.10281e-07
4.94293e-06
2.43898e-07
4.74515e-06
3.46205e-07
4.52099e-06
4.19643e-07
4.26232e-06
4.67931e-07
3.96425e-06
4.96544e-07
3.62481e-06
5.12753e-07
3.24404e-06
5.24249e-07
2.82297e-06
5.38019e-07
2.36305e-06
5.60291e-07
1.86592e-06
5.97074e-07
1.33344e-06
6.5456e-07
7.67891e-07
7.39472e-07
1.72691e-07
8.59256e-07
-4.45992e-07
1.02252e-06
-1.07861e-06
1.23562e-06
-1.70744e-06
1.50316e-06
-2.30923e-06
1.82854e-06
-2.8631e-06
2.19852e-06
-3.37285e-06
2.60525e-06
-3.91551e-06
2.99466e-06
-4.52152e-06
3.45156e-06
-5.1132e-06
3.93938e-06
-5.75361e-06
4.37264e-06
-6.53498e-06
4.12623e-06
-7.74431e-06
2.24369e-06
-1.03706e-05
-3.73932e-06
-1.13127e-05
-7.26098e-07
-1.20703e-05
-1.25921e-05
-1.36035e-05
-1.19307e-05
-1.46773e-05
-1.01482e-05
-1.56699e-05
-8.93761e-06
-1.62259e-05
-7.22888e-06
-1.6535e-05
-5.6398e-06
-1.65669e-05
-4.07114e-06
-1.64687e-05
-2.65e-06
-1.34265e-06
-2.08441e-08
-9.22888e-06
-4.17455e-08
-9.32235e-06
-6.19915e-08
-9.3341e-06
-8.13989e-08
-9.34094e-06
-9.97617e-08
-9.34838e-06
-1.16798e-07
-9.35821e-06
-1.32242e-07
-9.37139e-06
-1.45932e-07
-9.38818e-06
-1.57824e-07
-9.40838e-06
-1.67919e-07
-9.43153e-06
-1.76173e-07
-9.45707e-06
-1.82468e-07
-9.48442e-06
-1.8661e-07
-9.51296e-06
-1.8836e-07
-9.54208e-06
-1.87452e-07
-9.57119e-06
-1.83614e-07
-9.59969e-06
-1.76567e-07
-9.62698e-06
-1.66033e-07
-9.65237e-06
-1.51736e-07
-9.67518e-06
-1.33411e-07
-9.69467e-06
-1.10801e-07
-9.71009e-06
-8.36758e-08
-9.72059e-06
-5.19033e-08
-9.72519e-06
-1.5414e-08
-9.72288e-06
2.59492e-08
-9.71266e-06
7.25705e-08
-9.6939e-06
1.24791e-07
-9.66575e-06
1.82837e-07
-9.62699e-06
2.46896e-07
-9.57641e-06
3.17124e-07
-9.51283e-06
3.93663e-07
-9.43506e-06
4.76646e-07
-9.34191e-06
5.662e-07
-9.23218e-06
6.62456e-07
-9.10466e-06
7.65553e-07
-8.95814e-06
8.7565e-07
-8.79142e-06
9.92963e-07
-8.60329e-06
1.1178e-06
-8.39258e-06
1.25059e-06
-8.15813e-06
1.39199e-06
-7.89883e-06
1.5429e-06
-7.61365e-06
1.70462e-06
-7.30164e-06
1.879e-06
-6.96203e-06
2.06866e-06
-6.59433e-06
2.27719e-06
-6.19848e-06
2.5095e-06
-5.77516e-06
2.77208e-06
-5.32628e-06
3.07325e-06
-4.85565e-06
3.42284e-06
-4.37011e-06
3.83086e-06
-3.88084e-06
4.30459e-06
-3.40468e-06
4.84855e-06
-2.96469e-06
5.44621e-06
-2.59254e-06
6.02588e-06
-2.31955e-06
6.52218e-06
-2.14672e-06
6.9076e-06
-2.05287e-06
7.18546e-06
-2.00495e-06
7.36902e-06
-1.97412e-06
7.47227e-06
-1.94089e-06
7.50828e-06
-1.89441e-06
7.49062e-06
-1.83094e-06
7.42885e-06
-1.74727e-06
7.32982e-06
-1.64182e-06
7.19973e-06
-1.51575e-06
7.04418e-06
-1.37079e-06
6.86824e-06
-1.20874e-06
6.67694e-06
-1.03169e-06
6.47545e-06
-8.42122e-07
6.26896e-06
-6.43495e-07
6.06179e-06
-4.39948e-07
5.85671e-06
-2.3639e-07
5.65469e-06
-3.87962e-08
5.45496e-06
1.46587e-07
5.25163e-06
3.13608e-07
5.03781e-06
4.57716e-07
4.80653e-06
5.77488e-07
4.5521e-06
6.74063e-07
4.26976e-06
7.50275e-07
3.95579e-06
8.10509e-07
3.60799e-06
8.60545e-07
3.22568e-06
9.06555e-07
2.80945e-06
9.54249e-07
2.36077e-06
1.00896e-06
1.88175e-06
1.07609e-06
1.37514e-06
1.16117e-06
8.44651e-07
1.26996e-06
2.95411e-07
1.40849e-06
-2.65034e-07
1.58296e-06
-8.28089e-07
1.79867e-06
-1.38291e-06
2.05798e-06
-1.91968e-06
2.36531e-06
-2.43132e-06
2.71016e-06
-2.92429e-06
3.09822e-06
-3.42471e-06
3.49509e-06
-3.94487e-06
3.97172e-06
-4.45108e-06
4.44559e-06
-5.00224e-06
4.9238e-06
-5.70567e-06
4.82966e-06
-6.97184e-06
3.50985e-06
-1.008e-05
-6.31156e-07
-1.11763e-05
3.70225e-07
-1.14383e-05
-1.23302e-05
-1.23672e-05
-1.10018e-05
-1.32068e-05
-9.3087e-06
-1.39928e-05
-8.15163e-06
-1.45317e-05
-6.68998e-06
-1.48859e-05
-5.2856e-06
-1.50556e-05
-3.90144e-06
-1.51106e-05
-2.59504e-06
-1.34496e-06
-2.37854e-08
-9.2051e-06
-4.77442e-08
-9.29839e-06
-7.10758e-08
-9.31076e-06
-9.35022e-08
-9.31851e-06
-1.14688e-07
-9.32719e-06
-1.34237e-07
-9.33866e-06
-1.51854e-07
-9.35377e-06
-1.67437e-07
-9.37259e-06
-1.81016e-07
-9.3948e-06
-1.92597e-07
-9.41995e-06
-2.02072e-07
-9.4476e-06
-2.09226e-07
-9.47727e-06
-2.13779e-07
-9.50841e-06
-2.15422e-07
-9.54044e-06
-2.13837e-07
-9.57277e-06
-2.08706e-07
-9.60482e-06
-1.99711e-07
-9.63597e-06
-1.86538e-07
-9.66555e-06
-1.68876e-07
-9.69284e-06
-1.46432e-07
-9.71712e-06
-1.18916e-07
-9.73761e-06
-8.61229e-08
-9.75339e-06
-4.79487e-08
-9.76336e-06
-4.20077e-09
-9.76662e-06
4.56661e-08
-9.76252e-06
1.02055e-07
-9.75029e-06
1.65193e-07
-9.72889e-06
2.35273e-07
-9.69706e-06
3.12464e-07
-9.6536e-06
3.96949e-07
-9.59732e-06
4.88894e-07
-9.52701e-06
5.88458e-07
-9.44147e-06
6.95781e-07
-9.3395e-06
8.10996e-07
-9.21987e-06
9.34242e-07
-9.08139e-06
1.06568e-06
-8.92285e-06
1.2055e-06
-8.74311e-06
1.354e-06
-8.54107e-06
1.51156e-06
-8.31569e-06
1.67875e-06
-8.06603e-06
1.85638e-06
-7.79128e-06
2.04559e-06
-7.49084e-06
2.24793e-06
-7.16438e-06
2.46557e-06
-6.81197e-06
2.70135e-06
-6.43427e-06
2.95895e-06
-6.03278e-06
3.24288e-06
-5.61025e-06
3.55836e-06
-5.1712e-06
3.91073e-06
-4.72255e-06
4.30414e-06
-4.27428e-06
4.73929e-06
-3.83985e-06
5.21052e-06
-3.43594e-06
5.69925e-06
-3.08126e-06
6.17096e-06
-2.79125e-06
6.59216e-06
-2.56791e-06
6.9398e-06
-2.4005e-06
7.20683e-06
-2.27199e-06
7.3965e-06
-2.16379e-06
7.51622e-06
-2.06062e-06
7.57414e-06
-1.95233e-06
7.5783e-06
-1.8351e-06
7.53696e-06
-1.70593e-06
7.45739e-06
-1.56225e-06
7.34548e-06
-1.40384e-06
7.20647e-06
-1.23178e-06
7.04523e-06
-1.0475e-06
6.8664e-06
-8.52866e-07
6.67435e-06
-6.50069e-07
6.47284e-06
-4.41987e-07
6.26486e-06
-2.3197e-07
6.05261e-06
-2.41447e-08
5.83697e-06
1.76843e-07
5.6176e-06
3.65955e-07
5.39184e-06
5.39362e-07
5.15533e-06
6.94226e-07
4.90331e-06
8.29508e-07
4.63146e-06
9.45912e-07
4.33608e-06
1.04565e-06
4.01424e-06
1.13235e-06
3.66405e-06
1.21073e-06
3.28488e-06
1.28572e-06
2.87724e-06
1.36188e-06
2.44252e-06
1.44368e-06
1.98277e-06
1.53583e-06
1.50068e-06
1.64326e-06
9.99738e-07
1.7709e-06
4.84548e-07
1.92367e-06
-3.86219e-08
2.10612e-06
-5.64794e-07
2.32483e-06
-1.08387e-06
2.57704e-06
-1.58773e-06
2.86916e-06
-2.07084e-06
3.19325e-06
-2.53563e-06
3.563e-06
-2.98649e-06
3.94594e-06
-3.43232e-06
4.41755e-06
-3.85224e-06
4.8655e-06
-4.29426e-06
5.36582e-06
-4.84787e-06
5.38327e-06
-5.98317e-06
4.64515e-06
-8.79363e-06
2.1793e-06
-1.02856e-05
1.8622e-06
-1.05163e-05
-1.20995e-05
-1.11985e-05
-1.03197e-05
-1.18935e-05
-8.61369e-06
-1.25492e-05
-7.49595e-06
-1.30509e-05
-6.18829e-06
-1.34136e-05
-4.92291e-06
-1.36416e-05
-3.67345e-06
-1.37626e-05
-2.47406e-06
-1.29821e-06
-2.70633e-08
-9.17803e-06
-5.43948e-08
-9.27106e-06
-8.11026e-08
-9.28406e-06
-1.06813e-07
-9.2928e-06
-1.31049e-07
-9.30295e-06
-1.5331e-07
-9.3164e-06
-1.73325e-07
-9.33376e-06
-1.91093e-07
-9.35483e-06
-2.06691e-07
-9.3792e-06
-2.20072e-07
-9.40657e-06
-2.31025e-07
-9.43665e-06
-2.3925e-07
-9.46904e-06
-2.44402e-07
-9.50326e-06
-2.46128e-07
-9.53872e-06
-2.44071e-07
-9.57483e-06
-2.37877e-07
-9.61102e-06
-2.27187e-07
-9.64666e-06
-2.11646e-07
-9.68109e-06
-1.90914e-07
-9.71358e-06
-1.64689e-07
-9.74334e-06
-1.32748e-07
-9.76955e-06
-9.48836e-08
-9.79125e-06
-5.05941e-08
-9.80765e-06
6.49233e-10
-9.81787e-06
5.91829e-08
-9.82105e-06
1.25244e-07
-9.81635e-06
1.99033e-07
-9.80267e-06
2.80825e-07
-9.77885e-06
3.70861e-07
-9.74363e-06
4.69356e-07
-9.69581e-06
5.76509e-07
-9.63416e-06
6.92487e-07
-9.55745e-06
8.17431e-07
-9.46444e-06
9.51466e-07
-9.3539e-06
1.09471e-06
-9.22463e-06
1.24729e-06
-9.07543e-06
1.40936e-06
-8.90518e-06
1.58113e-06
-8.71284e-06
1.7629e-06
-8.49745e-06
1.95508e-06
-8.25821e-06
2.1583e-06
-7.99449e-06
2.3734e-06
-7.70594e-06
2.60155e-06
-7.39253e-06
2.8443e-06
-7.05472e-06
3.10364e-06
-6.6936e-06
3.382e-06
-6.31111e-06
3.68208e-06
-5.91033e-06
4.00664e-06
-5.49579e-06
4.35792e-06
-5.07385e-06
4.73656e-06
-4.65291e-06
5.14009e-06
-4.24336e-06
5.5612e-06
-3.85703e-06
5.98558e-06
-3.50563e-06
6.39217e-06
-3.19782e-06
6.75973e-06
-2.93546e-06
7.07248e-06
-2.71326e-06
7.32177e-06
-2.52128e-06
7.50596e-06
-2.34798e-06
7.62836e-06
-2.18302e-06
7.69494e-06
-2.01891e-06
7.7113e-06
-1.85146e-06
7.68313e-06
-1.67776e-06
7.61641e-06
-1.49554e-06
7.51655e-06
-1.30398e-06
7.38829e-06
-1.10352e-06
7.23605e-06
-8.95261e-07
7.06392e-06
-6.80739e-07
6.87576e-06
-4.61915e-07
6.67493e-06
-2.41158e-07
6.46384e-06
-2.08732e-08
6.24571e-06
1.93983e-07
6.02063e-06
4.01921e-07
5.78764e-06
5.98939e-07
5.54502e-06
7.81977e-07
5.29015e-06
9.49086e-07
5.0201e-06
1.09956e-06
4.73201e-06
1.23399e-06
4.42334e-06
1.35431e-06
4.09203e-06
1.46365e-06
3.73685e-06
1.56591e-06
3.35759e-06
1.66498e-06
2.95492e-06
1.76454e-06
2.53027e-06
1.86832e-06
2.08574e-06
1.98036e-06
1.62413e-06
2.10486e-06
1.14899e-06
2.24604e-06
6.64627e-07
2.40803e-06
1.75989e-07
2.59474e-06
-3.09651e-07
2.81047e-06
-7.87907e-07
3.0553e-06
-1.25234e-06
3.3336e-06
-1.69732e-06
3.63823e-06
-2.12488e-06
3.99055e-06
-2.52803e-06
4.34911e-06
-2.91567e-06
4.80519e-06
-3.26297e-06
5.21281e-06
-3.60531e-06
5.70816e-06
-4.00019e-06
5.77815e-06
-4.86119e-06
5.50614e-06
-7.21477e-06
4.53289e-06
-8.93564e-06
3.58307e-06
-9.36833e-06
-1.16668e-05
-9.98651e-06
-9.7015e-06
-1.06261e-05
-7.97416e-06
-1.12151e-05
-6.90692e-06
-1.16972e-05
-5.70625e-06
-1.20674e-05
-4.5527e-06
-1.2328e-05
-3.41283e-06
-1.24899e-05
-2.31213e-06
-1.22386e-06
-3.06493e-08
-9.14739e-06
-6.16409e-08
-9.24007e-06
-9.19856e-08
-9.25371e-06
-1.21213e-07
-9.26357e-06
-1.48695e-07
-9.27547e-06
-1.73868e-07
-9.29123e-06
-1.9655e-07
-9.31108e-06
-2.16857e-07
-9.33452e-06
-2.34849e-07
-9.36121e-06
-2.50362e-07
-9.39106e-06
-2.63086e-07
-9.42392e-06
-2.72656e-07
-9.45947e-06
-2.78694e-07
-9.49722e-06
-2.80813e-07
-9.5366e-06
-2.78621e-07
-9.57702e-06
-2.7173e-07
-9.61791e-06
-2.59754e-07
-9.65864e-06
-2.42321e-07
-9.69852e-06
-2.19062e-07
-9.73683e-06
-1.896e-07
-9.77281e-06
-1.53557e-07
-9.80559e-06
-1.1052e-07
-9.83429e-06
-6.00395e-08
-9.85813e-06
-1.63595e-09
-9.87627e-06
6.50645e-08
-9.88775e-06
1.40364e-07
-9.89165e-06
2.24527e-07
-9.88683e-06
3.17805e-07
-9.87213e-06
4.20502e-07
-9.84633e-06
5.32861e-07
-9.80817e-06
6.55094e-07
-9.75639e-06
7.87374e-07
-9.68973e-06
9.29841e-07
-9.60691e-06
1.0826e-06
-9.50666e-06
1.24574e-06
-9.38776e-06
1.41934e-06
-9.24902e-06
1.60347e-06
-9.08931e-06
1.79823e-06
-8.9076e-06
2.00379e-06
-8.703e-06
2.22036e-06
-8.47479e-06
2.44832e-06
-8.22244e-06
2.68815e-06
-7.94577e-06
2.94054e-06
-7.64493e-06
3.20642e-06
-7.32059e-06
3.4869e-06
-6.97406e-06
3.78328e-06
-6.60743e-06
4.09677e-06
-6.22376e-06
4.4283e-06
-5.82729e-06
4.77804e-06
-5.42357e-06
5.14463e-06
-5.01947e-06
5.52428e-06
-4.62299e-06
5.90987e-06
-4.2426e-06
6.2904e-06
-3.88615e-06
6.65176e-06
-3.55919e-06
6.97965e-06
-3.26337e-06
7.26257e-06
-2.99619e-06
7.49329e-06
-2.75201e-06
7.66909e-06
-2.52379e-06
7.7909e-06
-2.30482e-06
7.86185e-06
-2.08986e-06
7.88571e-06
-1.87532e-06
7.86659e-06
-1.65864e-06
7.80904e-06
-1.43799e-06
7.71762e-06
-1.21256e-06
7.59662e-06
-9.82522e-07
7.45007e-06
-7.48712e-07
7.2818e-06
-5.1247e-07
7.09538e-06
-2.75493e-07
6.89398e-06
-3.97556e-08
6.67959e-06
1.93514e-07
6.45325e-06
4.20317e-07
6.21673e-06
6.38434e-07
5.97005e-06
8.45613e-07
5.7122e-06
1.03982e-06
5.44155e-06
1.21973e-06
5.15623e-06
1.38487e-06
4.85438e-06
1.53585e-06
4.53431e-06
1.67437e-06
4.19478e-06
1.80318e-06
3.83521e-06
1.92548e-06
3.45576e-06
2.04442e-06
3.05728e-06
2.16301e-06
2.64118e-06
2.28441e-06
2.2095e-06
2.41203e-06
1.76495e-06
2.54942e-06
1.31086e-06
2.70013e-06
8.51248e-07
2.86763e-06
3.90863e-07
3.05513e-06
-6.40416e-08
3.26538e-06
-5.10479e-07
3.50174e-06
-9.42008e-07
3.76513e-06
-1.35223e-06
4.04845e-06
-1.74197e-06
4.38029e-06
-2.09967e-06
4.70681e-06
-2.43093e-06
5.13645e-06
-2.71067e-06
5.49254e-06
-2.95826e-06
5.95575e-06
-3.18518e-06
6.00506e-06
-3.75128e-06
6.07224e-06
-5.82325e-06
6.60486e-06
-7.65204e-06
5.41185e-06
-8.22127e-06
-1.10976e-05
-8.80658e-06
-9.11621e-06
-9.42708e-06
-7.35367e-06
-9.98523e-06
-6.34878e-06
-1.04561e-05
-5.23538e-06
-1.0829e-05
-4.17979e-06
-1.11054e-05
-3.1365e-06
-1.12884e-05
-2.12912e-06
-1.13447e-06
-3.45326e-08
-9.11285e-06
-6.94614e-08
-9.20514e-06
-1.03698e-07
-9.21948e-06
-1.36671e-07
-9.2306e-06
-1.6761e-07
-9.24453e-06
-1.95953e-07
-9.26289e-06
-2.21669e-07
-9.28536e-06
-2.4494e-07
-9.31125e-06
-2.65743e-07
-9.3404e-06
-2.8379e-07
-9.37301e-06
-2.98695e-07
-9.40902e-06
-3.10051e-07
-9.44812e-06
-3.17435e-07
-9.48984e-06
-3.20417e-07
-9.53362e-06
-3.18568e-07
-9.57887e-06
-3.11463e-07
-9.62502e-06
-2.98675e-07
-9.67142e-06
-2.79779e-07
-9.71742e-06
-2.54339e-07
-9.76227e-06
-2.21911e-07
-9.80524e-06
-1.82016e-07
-9.84549e-06
-1.34118e-07
-9.88218e-06
-7.77616e-08
-9.91449e-06
-1.25149e-08
-9.94151e-06
6.20382e-08
-9.9623e-06
1.46259e-07
-9.97586e-06
2.40484e-07
-9.98106e-06
3.45037e-07
-9.97668e-06
4.60215e-07
-9.9615e-06
5.86281e-07
-9.93423e-06
7.23467e-07
-9.89358e-06
8.71949e-07
-9.83821e-06
1.03186e-06
-9.76682e-06
1.20329e-06
-9.67809e-06
1.38628e-06
-9.57075e-06
1.58083e-06
-9.44357e-06
1.78692e-06
-9.2954e-06
2.00454e-06
-9.12522e-06
2.23365e-06
-8.93212e-06
2.47427e-06
-8.71541e-06
2.72646e-06
-8.47462e-06
2.99033e-06
-8.20963e-06
3.26607e-06
-7.92068e-06
3.55395e-06
-7.60851e-06
3.85433e-06
-7.27445e-06
4.16747e-06
-6.92056e-06
4.49345e-06
-6.54971e-06
4.83187e-06
-6.16569e-06
5.18154e-06
-5.77324e-06
5.54004e-06
-5.37796e-06
5.9031e-06
-4.98606e-06
6.26433e-06
-4.60384e-06
6.61511e-06
-4.23694e-06
6.94528e-06
-3.88938e-06
7.24471e-06
-3.56281e-06
7.50484e-06
-3.25632e-06
7.71979e-06
-2.96696e-06
7.88667e-06
-2.69066e-06
8.00515e-06
-2.42329e-06
8.07665e-06
-2.16136e-06
8.10357e-06
-1.90224e-06
8.08894e-06
-1.64402e-06
8.03632e-06
-1.38537e-06
7.94947e-06
-1.12572e-06
7.83211e-06
-8.6517e-07
7.68784e-06
-6.04442e-07
7.52006e-06
-3.44684e-07
7.33189e-06
-8.73221e-08
7.12561e-06
1.66515e-07
6.90459e-06
4.14532e-07
6.67013e-06
6.54769e-07
6.42318e-06
8.85384e-07
6.16411e-06
1.10467e-06
5.89263e-06
1.31131e-06
5.60799e-06
1.50436e-06
5.30917e-06
1.68369e-06
4.99508e-06
1.84993e-06
4.66476e-06
2.00469e-06
4.31763e-06
2.15031e-06
3.95363e-06
2.28948e-06
3.57328e-06
2.42477e-06
3.17757e-06
2.55872e-06
2.76794e-06
2.69403e-06
2.34641e-06
2.83356e-06
1.91554e-06
2.98029e-06
1.47848e-06
3.13719e-06
1.03898e-06
3.30714e-06
6.013e-07
3.4928e-06
1.70266e-07
3.69642e-06
-2.48559e-07
3.92057e-06
-6.51409e-07
4.16798e-06
-1.03206e-06
4.4291e-06
-1.38666e-06
4.73489e-06
-1.70575e-06
5.0259e-06
-1.98657e-06
5.41727e-06
-2.2093e-06
5.71527e-06
-2.37423e-06
6.12069e-06
-2.46955e-06
6.10038e-06
-2.75819e-06
6.36089e-06
-4.55469e-06
8.40136e-06
-6.36034e-06
7.21749e-06
-7.08934e-06
-1.03686e-05
-7.66803e-06
-8.53753e-06
-8.29706e-06
-6.72466e-06
-8.84558e-06
-5.80028e-06
-9.31609e-06
-4.76487e-06
-9.69177e-06
-3.80412e-06
-9.97592e-06
-2.85236e-06
-1.01689e-05
-1.93618e-06
-1.03779e-06
-3.8717e-08
-9.07414e-06
-7.78641e-08
-9.166e-06
-1.16263e-07
-9.18108e-06
-1.53226e-07
-9.19364e-06
-1.87879e-07
-9.20988e-06
-2.19744e-07
-9.23102e-06
-2.48953e-07
-9.25615e-06
-2.75745e-07
-9.28446e-06
-2.99921e-07
-9.31623e-06
-3.21055e-07
-9.35188e-06
-3.38651e-07
-9.39142e-06
-3.52251e-07
-9.43452e-06
-3.61415e-07
-9.48067e-06
-3.65694e-07
-9.52934e-06
-3.64626e-07
-9.57994e-06
-3.57739e-07
-9.6319e-06
-3.44553e-07
-9.68461e-06
-3.24572e-07
-9.7374e-06
-2.97284e-07
-9.78956e-06
-2.62176e-07
-9.84034e-06
-2.18716e-07
-9.88895e-06
-1.66355e-07
-9.93454e-06
-1.04579e-07
-9.97626e-06
-3.29035e-08
-1.00132e-05
4.91179e-08
-1.00443e-05
1.4194e-07
-1.00687e-05
2.45921e-07
-1.0085e-05
3.61449e-07
-1.00922e-05
4.88849e-07
-1.00889e-05
6.28424e-07
-1.00738e-05
7.80411e-07
-1.00456e-05
9.44993e-07
-1.00028e-05
1.12229e-06
-9.94411e-06
1.31236e-06
-9.86815e-06
1.51521e-06
-9.77358e-06
1.73074e-06
-9.6591e-06
1.95884e-06
-9.5235e-06
2.19934e-06
-9.36571e-06
2.45201e-06
-9.18479e-06
2.71663e-06
-8.98002e-06
2.99293e-06
-8.75091e-06
3.28063e-06
-8.49733e-06
3.57944e-06
-8.21951e-06
3.88903e-06
-7.91814e-06
4.20903e-06
-7.59448e-06
4.53888e-06
-7.25043e-06
4.87774e-06
-6.88858e-06
5.22427e-06
-6.51223e-06
5.57641e-06
-6.12541e-06
5.93113e-06
-5.7327e-06
6.28412e-06
-5.33907e-06
6.62968e-06
-4.94942e-06
6.96085e-06
-4.56812e-06
7.2699e-06
-4.19844e-06
7.54925e-06
-3.84216e-06
7.79234e-06
-3.49941e-06
7.99439e-06
-3.169e-06
8.15261e-06
-2.84888e-06
8.2661e-06
-2.53679e-06
8.33539e-06
-2.23066e-06
8.36201e-06
-1.92886e-06
8.34821e-06
-1.63022e-06
8.29679e-06
-1.33396e-06
8.21087e-06
-1.03981e-06
8.09368e-06
-7.47974e-07
7.94838e-06
-4.59148e-07
7.77818e-06
-1.74481e-07
7.58598e-06
1.04871e-07
7.37412e-06
3.78377e-07
7.14513e-06
6.43512e-07
6.90086e-06
8.99037e-07
6.64261e-06
1.14363e-06
6.37105e-06
1.37622e-06
6.08646e-06
1.5959e-06
5.78863e-06
1.80219e-06
5.47718e-06
1.99513e-06
5.15164e-06
2.17547e-06
4.81164e-06
2.34469e-06
4.4571e-06
2.50484e-06
4.08839e-06
2.65818e-06
3.70627e-06
2.80689e-06
3.31184e-06
2.95315e-06
2.90662e-06
3.09925e-06
2.49254e-06
3.24763e-06
2.07205e-06
3.40076e-06
1.64814e-06
3.5611e-06
1.22427e-06
3.731e-06
8.04426e-07
3.91264e-06
3.92891e-07
4.10795e-06
-6.01283e-09
4.31947e-06
-3.83733e-07
4.5457e-06
-7.40248e-07
4.78562e-06
-1.06481e-06
5.05944e-06
-1.35379e-06
5.31488e-06
-1.59158e-06
5.65506e-06
-1.76896e-06
5.89265e-06
-1.86584e-06
6.21757e-06
-1.88312e-06
6.11766e-06
-1.96989e-06
6.44766e-06
-3.38787e-06
9.81934e-06
-4.98109e-06
8.8107e-06
-5.94768e-06
-9.40204e-06
-6.57812e-06
-7.90711e-06
-7.26221e-06
-6.04058e-06
-7.79761e-06
-5.2649e-06
-8.27691e-06
-4.28559e-06
-8.65357e-06
-3.42746e-06
-8.94015e-06
-2.56579e-06
-9.1362e-06
-1.74012e-06
-9.3856e-07
-4.3223e-08
-9.03091e-06
-8.68975e-08
-9.12232e-06
-1.29774e-07
-9.1382e-06
-1.71011e-07
-9.1524e-06
-2.09693e-07
-9.1712e-06
-2.45505e-07
-9.19521e-06
-2.78916e-07
-9.22274e-06
-3.09973e-07
-9.2534e-06
-3.38088e-07
-9.28811e-06
-3.62682e-07
-9.32728e-06
-3.83294e-07
-9.37081e-06
-3.99489e-07
-9.41832e-06
-4.10814e-07
-9.46935e-06
-4.16793e-07
-9.52336e-06
-4.16922e-07
-9.57981e-06
-4.10676e-07
-9.63815e-06
-3.97517e-07
-9.69777e-06
-3.76888e-07
-9.75803e-06
-3.48217e-07
-9.81823e-06
-3.10921e-07
-9.87764e-06
-2.64411e-07
-9.93546e-06
-2.08094e-07
-9.99086e-06
-1.41395e-07
-1.0043e-05
-6.37609e-08
-1.00908e-05
2.53587e-08
-1.01334e-05
1.26287e-07
-1.01696e-05
2.39632e-07
-1.01984e-05
3.65815e-07
-1.02184e-05
5.05173e-07
-1.02283e-05
6.58028e-07
-1.02267e-05
8.2465e-07
-1.02122e-05
1.00522e-06
-1.01834e-05
1.19987e-06
-1.01388e-05
1.40861e-06
-1.00769e-05
1.63139e-06
-9.99635e-06
1.86805e-06
-9.89575e-06
2.11835e-06
-9.7738e-06
2.38195e-06
-9.62931e-06
2.65843e-06
-9.46128e-06
2.9473e-06
-9.26888e-06
3.24799e-06
-9.05158e-06
3.55982e-06
-8.80914e-06
3.88203e-06
-8.54171e-06
4.21374e-06
-8.24986e-06
4.55392e-06
-7.9347e-06
4.90134e-06
-7.59788e-06
5.25443e-06
-7.24168e-06
5.61114e-06
-6.86896e-06
5.96884e-06
-6.48312e-06
6.32415e-06
-6.08802e-06
6.67281e-06
-5.68774e-06
7.0097e-06
-5.28631e-06
7.32899e-06
-4.8874e-06
7.62449e-06
-4.49394e-06
7.89024e-06
-4.1079e-06
8.12103e-06
-3.7302e-06
8.3129e-06
-3.36086e-06
8.46332e-06
-2.9993e-06
8.57116e-06
-2.64463e-06
8.6365e-06
-2.296e-06
8.66033e-06
-1.95271e-06
8.6444e-06
-1.61429e-06
8.59101e-06
-1.28056e-06
8.50282e-06
-9.51616e-07
8.3827e-06
-6.2786e-07
8.23355e-06
-3.09999e-07
8.05849e-06
5.80037e-10
7.85937e-06
3.03986e-07
7.63958e-06