/*--------------------------------*- C++ -*----------------------------------*\
| =========                 |                                                 |
| \\      /  F ield         | OpenFOAM: The Open Source CFD Toolbox           |
|  \\    /   O peration     | Version:  v2106                                 |
|   \\  /    A nd           | Website:  www.openfoam.com                      |
|    \\/     M anipulation  |                                                 |
\*---------------------------------------------------------------------------*/
FoamFile
{
    version     2.0;
    format      ascii;
    arch        "LSB;label=32;scalar=64";
    class       volVectorField;
    location    "1.4";
    object      U;
}
// * * * * * * * * * * * * * * * * * * * * * * * * * * * * * * * * * * * * * //

dimensions      [0 1 -1 0 0 0 0];

internalField   nonuniform List<vector> 
29678
(
(-0.0776249 1.53433e-23 -6.6781e-05)
(-0.0783924 2.27855e-22 -0.000193422)
(-0.0784543 1.56024e-21 -0.000312068)
(-0.0784736 6.07145e-20 -0.000417491)
(-0.0784995 4.60746e-19 -0.000514667)
(-0.0785441 3.63673e-19 -0.000606394)
(-0.0786123 4.1504e-19 -0.000694126)
(-0.0787056 4.10815e-19 -0.000778012)
(-0.0788231 -7.44092e-19 -0.000857389)
(-0.0789619 2.41522e-19 -0.000931167)
(-0.0791176 -7.6555e-19 -0.000998191)
(-0.0792854 2.99436e-19 -0.00105753)
(-0.0794596 -7.12549e-19 -0.00110861)
(-0.0796346 2.95768e-19 -0.00115122)
(-0.0798049 -8.74905e-19 -0.00118538)
(-0.079965 3.0856e-19 -0.00121118)
(-0.0801089 -8.63648e-19 -0.00122862)
(-0.0802303 -9.12474e-19 -0.00123749)
(-0.0803229 3.78e-19 -0.00123739)
(-0.0803808 -8.36471e-19 -0.00122779)
(-0.0803978 -9.38642e-19 -0.00120806)
(-0.0803674 -9.28462e-19 -0.00117753)
(-0.0802825 -4.33825e-20 -0.00113556)
(-0.0801361 2.40536e-20 -0.00108164)
(-0.0799212 -3.47328e-19 -0.00101544)
(-0.0796304 -1.37528e-19 -0.000936405)
(-0.0792544 -1.16319e-19 -0.000846665)
(-0.0787847 4.82364e-19 -0.000747006)
(-0.0782108 -6.74291e-19 -0.000637305)
(-0.0775222 -8.02877e-19 -0.000516404)
(-0.0767106 -8.10011e-19 -0.000383469)
(-0.0757667 -5.08259e-20 -0.000237867)
(-0.0746813 -1.62971e-19 -7.9259e-05)
(-0.0734443 2.47482e-19 9.25825e-05)
(-0.0720455 4.35403e-19 0.000277854)
(-0.0704741 3.04477e-19 0.000476555)
(-0.0687189 3.80603e-19 0.000688609)
(-0.0667675 2.47306e-19 0.000914042)
(-0.0646066 2.44096e-19 0.00115294)
(-0.0622211 3.36413e-19 0.00140559)
(-0.0595933 2.45508e-19 0.00167268)
(-0.0567022 3.66047e-19 0.00195562)
(-0.0535213 2.31579e-19 0.00225713)
(-0.0500162 2.86925e-19 0.00258239)
(-0.0461394 1.64368e-19 0.00294142)
(-0.0418222 -3.01819e-19 0.00335464)
(-0.0369596 2.18533e-19 0.00386624)
(-0.0313818 1.77199e-19 0.00457854)
(-0.0247997 2.60015e-19 0.00573881)
(-0.0167058 1.62455e-19 0.0079089)
(-0.00616747 2.27106e-19 0.0120767)
(0.00848888 2.30729e-19 0.0192854)
(0.024309 1.89822e-19 0.0314871)
(0.0252624 8.10148e-20 0.046732)
(0.0125939 4.78024e-20 0.0578809)
(0.000780224 1.6385e-19 0.0631929)
(-0.00684651 1.63732e-19 0.0653078)
(-0.0118522 1.20206e-19 0.0656025)
(-0.0152701 2.06655e-19 0.0649972)
(-0.0176006 1.16459e-19 0.063877)
(-0.0191108 1.31365e-19 0.0624255)
(-0.0200199 1.06285e-19 0.0607305)
(-0.0204414 -1.43806e-19 0.0588384)
(-0.0204411 2.54526e-19 0.0567919)
(-0.0200984 2.99081e-19 0.0546184)
(-0.0194284 -1.03879e-19 0.0523312)
(-0.0183621 -2.27314e-19 0.0499727)
(-0.0168786 -1.54891e-19 0.0476236)
(-0.0149976 -1.04942e-19 0.0453752)
(-0.0127463 1.90759e-19 0.0433265)
(-0.0102021 -5.67231e-21 0.0415819)
(-0.00752188 -1.90331e-19 0.0402323)
(-0.00495428 -4.71622e-20 0.0393301)
(-0.0028446 1.4545e-19 0.0388342)
(-0.00159587 -2.31416e-19 0.0385547)
(-0.00139331 -2.67547e-20 0.0382324)
(-0.0021093 2.74012e-19 0.0375546)
(-0.00348825 3.29198e-20 0.0363154)
(-0.00517569 -1.19265e-19 0.0344454)
(-0.00691449 -2.54988e-20 0.0319558)
(-0.00857826 1.32905e-19 0.028897)
(-0.0101148 2.17451e-20 0.0253196)
(-0.0114999 -9.42974e-20 0.021261)
(-0.0127294 -3.14762e-20 0.0167368)
(-0.013796 1.24914e-19 0.0117378)
(-0.0146634 -5.2593e-20 0.00623885)
(-0.0152474 -4.65422e-20 0.000220201)
(-0.0153598 -3.4948e-21 -0.00638442)
(-0.014635 3.51748e-20 -0.0134335)
(-0.0124888 -6.06086e-21 -0.0207833)
(-0.0078178 -1.87644e-21 -0.0276918)
(0.00148443 -3.72401e-20 -0.0331659)
(0.0108585 5.30478e-21 -0.0344871)
(0.00298072 2.81102e-20 -0.0373142)
(0.000845093 -7.53226e-20 -0.0458209)
(0.00742363 2.79906e-20 -0.054094)
(0.00761652 -2.85191e-20 -0.0625411)
(0.00874205 -9.03486e-20 -0.0698802)
(0.00561298 -2.48011e-19 -0.07825)
(-0.0142368 -3.12784e-19 -0.0613989)
(-0.0557399 5.84511e-19 -0.0447785)
(-0.198671 -1.1989e-20 -0.0734744)
(-0.237456 -2.08999e-19 -0.133122)
(-0.132509 3.93321e-20 -0.172663)
(-0.123365 -4.41956e-19 -0.177006)
(-0.0740187 -2.36446e-19 -0.192721)
(-0.0532439 -7.43666e-20 -0.19013)
(-0.0174005 3.60754e-19 -0.187429)
(-0.00293112 2.13781e-20 -0.175961)
(0.00146919 -3.26405e-19 -0.166159)
(-0.0774328 -7.14691e-24 -6.43772e-05)
(-0.0782078 4.35285e-22 -0.000188314)
(-0.078284 1.40638e-20 -0.000310039)
(-0.0783172 3.17404e-19 -0.000421875)
(-0.0783533 -1.67726e-21 -0.000526953)
(-0.0784052 -9.47973e-21 -0.000626177)
(-0.0784797 6.7894e-22 -0.000719891)
(-0.07858 3.50764e-19 -0.000807558)
(-0.0787058 -3.25443e-19 -0.000888205)
(-0.0788546 -3.66494e-20 -0.000960711)
(-0.0790221 -3.12314e-19 -0.0010241)
(-0.0792026 2.87642e-19 -0.00107769)
(-0.0793902 -3.51295e-19 -0.00112111)
(-0.0795787 -4.03392e-20 -0.00115419)
(-0.0797624 -3.84539e-19 -0.00117682)
(-0.0799359 2.98403e-19 -0.0011888)
(-0.0800934 -3.49186e-19 -0.00118972)
(-0.0802289 -3.79961e-19 -0.00117892)
(-0.0803364 7.76393e-19 -0.00115552)
(-0.0804102 -3.48454e-19 -0.00111855)
(-0.0804441 -3.56781e-19 -0.00106701)
(-0.0804317 -4.48833e-19 -0.00099994)
(-0.0803658 -2.35271e-20 -0.000916457)
(-0.080239 -3.52314e-19 -0.000815777)
(-0.0800438 -3.73847e-20 -0.000697009)
(-0.0797736 -7.55306e-19 -0.000560397)
(-0.0794176 5.33722e-19 -0.000407207)
(-0.0789656 9.01315e-19 -0.000234499)
(-0.0784101 -4.36945e-19 -4.04812e-05)
(-0.0777421 -4.94396e-19 0.000175037)
(-0.0769522 -5.46262e-19 0.000413096)
(-0.0760311 -5.49944e-20 0.000674424)
(-0.074969 -8.00398e-19 0.000959551)
(-0.0737557 -4.59938e-20 0.00126892)
(-0.0723809 4.21277e-19 0.00160298)
(-0.070834 -1.25604e-20 0.00196222)
(-0.0691035 1.16695e-19 0.00234721)
(-0.0671776 -4.23533e-20 0.00275884)
(-0.065043 -2.50196e-20 0.00319844)
(-0.0626855 6.66799e-20 0.00366808)
(-0.0600888 -2.46084e-20 0.00417104)
(-0.0572337 3.22014e-19 0.00471247)
(-0.0540975 -1.30104e-20 0.00530057)
(-0.0506518 4.52376e-20 0.00594838)
(-0.0468609 -5.39843e-20 0.00667693)
(-0.0426792 -4.5847e-19 0.00752026)
(-0.0380498 -1.41231e-20 0.00853228)
(-0.0329081 -2.65247e-20 0.00979116)
(-0.0272025 2.06658e-19 0.0113833)
(-0.0209579 -4.35849e-21 0.0133799)
(-0.0143896 5.88637e-20 0.01604)
(-0.0079774 1.78734e-19 0.0212129)
(-0.00245459 1.36656e-19 0.0309602)
(-0.000804491 -1.34627e-19 0.0437541)
(-0.0033353 1.90251e-20 0.0549207)
(-0.00687747 3.50651e-20 0.0613353)
(-0.0102136 -7.70605e-20 0.0640985)
(-0.0128818 -1.05703e-19 0.0651586)
(-0.0148514 -1.26773e-20 0.0651955)
(-0.0161964 -6.60756e-21 0.0645807)
(-0.0170048 1.4544e-20 0.0635314)
(-0.0173719 -6.87752e-21 0.0621748)
(-0.0173672 -2.15292e-19 0.0605776)
(-0.0170313 2.21554e-19 0.0587863)
(-0.016398 2.46193e-19 0.0568343)
(-0.0154865 6.41892e-20 0.0547404)
(-0.0143012 -1.93777e-19 0.0525432)
(-0.0128573 1.5293e-19 0.0503125)
(-0.0111856 -4.55731e-20 0.0481265)
(-0.00933217 -1.82534e-20 0.0460713)
(-0.00736922 -1.29613e-20 0.0442398)
(-0.0054027 -1.68771e-19 0.0427123)
(-0.00356906 -8.48798e-20 0.041527)
(-0.00203798 2.35565e-19 0.0406611)
(-0.00098117 1.47683e-19 0.039995)
(-0.000470609 -3.18748e-19 0.0393394)
(-0.00038395 1.01074e-19 0.0384312)
(-0.000652027 1.09326e-19 0.0370196)
(-0.0011823 -4.92847e-20 0.0350502)
(-0.00184699 4.57088e-20 0.0325404)
(-0.00253932 -3.70734e-20 0.0295361)
(-0.00318289 3.43821e-20 0.0260837)
(-0.00371976 -1.30345e-19 0.0222179)
(-0.00409725 1.50009e-19 0.0179572)
(-0.00425956 -2.46752e-20 0.0132996)
(-0.00413796 -6.69563e-20 0.00822249)
(-0.0036391 7.00519e-21 0.00270189)
(-0.00265505 4.70184e-21 -0.0033327)
(-0.000991518 3.46577e-20 -0.00987944)
(0.00153997 -2.47268e-20 -0.0168189)
(0.00506009 8.44095e-21 -0.0236107)
(0.00922542 8.75242e-20 -0.0294638)
(0.0133451 -7.39172e-20 -0.0322823)
(0.0151751 7.60122e-20 -0.0350911)
(0.0177576 2.52053e-20 -0.0417093)
(0.0222408 1.27132e-19 -0.0495996)
(0.0246781 1.86226e-19 -0.0579184)
(0.020449 4.15216e-19 -0.0656438)
(0.00172766 -3.1567e-19 -0.073631)
(-0.0699568 -9.88663e-18 -0.0526856)
(-0.0264159 9.86077e-18 -0.0214353)
(-0.131078 -2.96746e-20 -0.0763169)
(-0.138561 -1.82178e-19 -0.119681)
(-0.108392 -8.96695e-20 -0.156339)
(-0.0962433 -5.24082e-20 -0.160054)
(-0.0711374 3.03504e-20 -0.173518)
(-0.0534809 -7.72615e-20 -0.172395)
(-0.0341372 -1.50288e-20 -0.170182)
(-0.0202444 -4.37254e-19 -0.161695)
(-0.00930544 9.39655e-20 -0.15425)
(-0.0773074 -6.26501e-23 -6.89623e-05)
(-0.0780852 -5.03711e-22 -0.000202413)
(-0.0781681 -6.44123e-21 -0.000335459)
(-0.0782078 -7.49261e-20 -0.000459514)
(-0.07825 -4.02744e-19 -0.000577551)
(-0.0783081 -3.08425e-19 -0.000689017)
(-0.0783894 -3.64582e-19 -0.000793162)
(-0.0784974 -3.18131e-19 -0.000888682)
(-0.0786321 5.88563e-19 -0.000974323)
(-0.0787907 -2.17626e-19 -0.0010491)
(-0.0789685 7.32337e-19 -0.0011124)
(-0.0791598 -3.10527e-19 -0.00116385)
(-0.0793583 6.64985e-19 -0.00120316)
(-0.079558 -2.70057e-19 -0.0012299)
(-0.0797532 7.66812e-19 -0.00124345)
(-0.0799388 -3.36104e-19 -0.00124298)
(-0.0801093 8.1386e-19 -0.00122737)
(-0.0802589 7.45621e-19 -0.00119528)
(-0.0803818 -2.98654e-19 -0.00114523)
(-0.0804721 7.76841e-19 -0.0010757)
(-0.0805237 8.44025e-19 -0.000985246)
(-0.0805301 7.13494e-19 -0.000872522)
(-0.080484 3.24744e-20 -0.000736289)
(-0.0803779 3.05802e-20 -0.000575178)
(-0.0802041 2.97116e-19 -0.000387714)
(-0.0799548 2.50412e-20 -0.000175168)
(-0.0796216 2.68258e-19 6.49374e-05)
(-0.0791948 -2.9796e-19 0.000334882)
(-0.078666 6.68958e-19 0.000634979)
(-0.0780256 7.89545e-19 0.000966222)
(-0.0772641 6.31144e-19 0.00132975)
(-0.0763719 3.31714e-20 0.00172651)
(-0.0753392 -1.37322e-20 0.00215732)
(-0.0741558 -2.97927e-19 0.00262294)
(-0.0728116 -3.41732e-19 0.00312415)
(-0.0712959 -3.17261e-19 0.00366185)
(-0.0695977 -3.14218e-19 0.00423717)
(-0.0677054 -2.84421e-19 0.00485172)
(-0.0656067 -2.33653e-19 0.00550785)
(-0.0632885 -2.37365e-19 0.00620901)
(-0.0607363 -2.65816e-19 0.00696045)
(-0.0579338 -2.74744e-19 0.00777003)
(-0.0548625 -2.06936e-19 0.00864961)
(-0.051501 -2.06681e-19 0.0096171)
(-0.0478243 -1.99237e-19 0.0106997)
(-0.0438037 2.82741e-19 0.0119386)
(-0.0394077 -1.76123e-19 0.0133966)
(-0.0346032 -2.04125e-19 0.0151698)
(-0.0293549 -2.0553e-19 0.0174144)
(-0.0236025 -1.09463e-19 0.0204234)
(-0.0172382 -1.45899e-19 0.0247352)
(-0.0103345 -2.18398e-19 0.0308301)
(-0.00453538 -1.24913e-19 0.0383125)
(-0.0019145 -9.01414e-20 0.0460088)
(-0.00288874 -6.35008e-20 0.052655)
(-0.0057352 -1.12895e-20 0.057429)
(-0.00859008 5.56194e-20 0.0604003)
(-0.0110372 -1.86603e-19 0.0620598)
(-0.0129711 -1.95838e-19 0.062784)
(-0.0144006 -1.33606e-19 0.0628187)
(-0.0153131 2.24379e-19 0.06233)
(-0.0157472 -9.84492e-20 0.0614421)
(-0.0157888 -3.16243e-19 0.0602496)
(-0.0154951 1.65642e-19 0.058817)
(-0.0149044 -1.99391e-20 0.0571917)
(-0.0140396 -3.32578e-19 0.0554186)
(-0.0129149 -5.86456e-20 0.0535465)
(-0.0115486 1.55851e-19 0.0516313)
(-0.00997284 6.51593e-20 0.0497307)
(-0.00823421 -2.23286e-19 0.047902)
(-0.00639919 -1.11206e-21 0.0461983)
(-0.00456321 1.7438e-19 0.0446568)
(-0.00285069 1.18056e-20 0.0432846)
(-0.00140512 -1.68987e-19 0.0420484)
(-0.000362007 1.64654e-19 0.0408597)
(0.000215029 -1.01055e-20 0.0395852)
(0.000372944 -1.7638e-19 0.0380937)
(0.000207617 -9.45241e-21 0.0362772)
(-0.000185739 1.10864e-19 0.0340709)
(-0.00070076 -1.01183e-21 0.0314508)
(-0.00124832 -1.47814e-19 0.028418)
(-0.00176279 -7.60533e-21 0.0249862)
(-0.00219577 7.95879e-20 0.0211711)
(-0.00250672 -6.44874e-21 0.0169863)
(-0.00265158 -1.15848e-19 0.0124428)
(-0.00257277 1.69398e-20 0.00755372)
(-0.00218816 -2.06629e-20 0.00234157)
(-0.00137975 -3.11307e-20 -0.0031598)
(6.53979e-07 -4.7109e-21 -0.00876319)
(0.0021769 -2.55148e-20 -0.0143704)
(0.00527692 -5.38312e-20 -0.0197672)
(0.00920299 2.54688e-20 -0.0247635)
(0.0133868 -5.97868e-20 -0.0288538)
(0.0158987 -1.39675e-19 -0.0333817)
(0.0185336 -8.71527e-21 -0.0388855)
(0.022809 -1.50178e-19 -0.044898)
(0.025821 -4.38482e-20 -0.0511662)
(0.0222695 -1.38468e-20 -0.0569946)
(0.00198583 1.77745e-19 -0.0678876)
(-0.0624718 8.46052e-20 -0.0699233)
(-0.0171142 2.52206e-19 -0.09446)
(-0.116735 -3.06318e-20 -0.0972081)
(-0.124498 1.03165e-19 -0.10931)
(-0.100495 -1.64386e-20 -0.13341)
(-0.0891323 3.55927e-19 -0.139294)
(-0.0675789 7.46049e-20 -0.15008)
(-0.0505353 -3.47142e-20 -0.152157)
(-0.032752 -1.94917e-19 -0.152746)
(-0.0191599 1.81714e-19 -0.150462)
(-0.00872606 2.62319e-19 -0.148017)
(-0.0771641 -8.05479e-23 -7.76395e-05)
(-0.0779436 -1.1715e-21 -0.000228475)
(-0.0780327 -2.3014e-20 -0.000380057)
(-0.0780789 -3.48656e-19 -0.000522132)
(-0.078128 4.0233e-19 -0.000657898)
(-0.0781939 4.01667e-19 -0.000785777)
(-0.0782845 3.92312e-19 -0.000904169)
(-0.0784031 -1.09123e-20 -0.00101123)
(-0.0785494 -4.2565e-19 -0.00110573)
(-0.0787203 3.21486e-19 -0.00118708)
(-0.0789107 -3.07508e-19 -0.00125506)
(-0.0791149 -3.84659e-20 -0.00130941)
(-0.0793268 -3.46495e-19 -0.00134948)
(-0.0795406 3.26899e-19 -0.00137423)
(-0.0797512 -3.0737e-19 -0.00138226)
(-0.0799535 -4.04331e-20 -0.00137193)
(-0.0801422 -3.75627e-19 -0.00134144)
(-0.0803118 -3.66311e-19 -0.00128886)
(-0.0804565 -4.78988e-19 -0.0012122)
(-0.0805703 -3.14554e-19 -0.00110951)
(-0.080647 -3.47028e-19 -0.000978956)
(-0.0806799 -3.81678e-19 -0.000818842)
(-0.0806618 5.02068e-21 -0.000627636)
(-0.080585 4.46549e-19 -0.000403466)
(-0.0804415 -3.44275e-19 -0.000146093)
(-0.0802223 6.53282e-19 0.000143263)
(-0.0799209 -6.48774e-19 0.000469017)
(-0.0795279 -4.27775e-19 0.000833353)
(-0.0790343 -3.96583e-19 0.00123735)
(-0.0784303 -3.86517e-19 0.00168243)
(-0.0777064 -3.42276e-19 0.00216981)
(-0.0768527 5.8023e-21 0.00270051)
(-0.0758594 6.94449e-19 0.00327549)
(-0.0747163 3.82791e-19 0.00389572)
(-0.0734133 2.22694e-20 0.00456219)
(-0.0719399 3.11836e-19 0.00527604)
(-0.0702856 3.15761e-19 0.0060387)
(-0.0684395 3.09709e-19 0.0068522)
(-0.0663901 3.28841e-19 0.00771946)
(-0.0641259 3.20446e-19 0.00864477)
(-0.0616347 2.8534e-19 0.00963442)
(-0.0589036 1.83572e-20 0.0106976)
(-0.0559191 2.66222e-19 0.0118476)
(-0.0526672 2.70835e-19 0.0131041)
(-0.049134 1.81212e-19 0.0144953)
(-0.0453069 3.15741e-19 0.016062)
(-0.0411784 2.7229e-19 0.0178624)
(-0.0367515 2.21389e-19 0.0199786)
(-0.0320536 2.23495e-20 0.0225246)
(-0.0271688 2.0075e-19 0.0256442)
(-0.0223349 2.56607e-19 0.0294668)
(-0.0181007 2.22358e-20 0.0340916)
(-0.015127 -6.38822e-20 0.0395695)
(-0.0136095 1.80219e-19 0.0455812)
(-0.0134027 1.40603e-19 0.0512807)
(-0.0140121 1.44298e-20 0.0558499)
(-0.0148618 2.46954e-19 0.0590551)
(-0.0156325 1.18714e-19 0.0610933)
(-0.0161698 3.5834e-19 0.0622229)
(-0.0163722 1.87869e-20 0.0626336)
(-0.016278 1.17578e-19 0.0624979)
(-0.0159763 5.3404e-20 0.0619565)
(-0.015451 -3.59742e-19 0.0610788)
(-0.0146885 2.40116e-19 0.0599188)
(-0.0137037 2.78932e-19 0.0585348)
(-0.0125163 -3.07721e-19 0.0569741)
(-0.0111443 -3.49446e-19 0.0552829)
(-0.00961309 -2.05311e-19 0.0535129)
(-0.00795528 2.39064e-21 0.0517135)
(-0.00621599 2.52225e-19 0.0499277)
(-0.0044533 1.81251e-20 0.0481944)
(-0.00273786 -1.94369e-19 0.0465431)
(-0.00114892 -4.50413e-21 0.044976)
(0.000239816 1.76316e-19 0.0434724)
(0.00135705 -1.27022e-19 0.041978)
(0.00218542 -3.2111e-20 0.0404066)
(0.00276513 1.55765e-19 0.038661)
(0.0031267 2.88481e-20 0.036657)
(0.00331727 -1.36625e-19 0.0343411)
(0.00340164 6.77172e-21 0.0316866)
(0.00344946 1.19933e-19 0.0286862)
(0.00352419 3.24375e-20 0.0253449)
(0.00368161 -1.1802e-19 0.0216738)
(0.00397455 -6.3984e-21 0.0176862)
(0.00445763 1.37853e-19 0.0133968)
(0.00519038 -5.69091e-20 0.00882343)
(0.00623797 -1.4873e-20 0.00399164)
(0.0076789 -8.92137e-21 -0.00107224)
(0.00954817 5.13806e-20 -0.00630112)
(0.0118703 -2.82408e-20 -0.0115765)
(0.0146643 3.58315e-20 -0.0167084)
(0.0178074 -2.55666e-20 -0.0215973)
(0.0211675 -1.65572e-20 -0.0259536)
(0.0242238 1.40378e-20 -0.0303946)
(0.0279271 -6.89588e-20 -0.0350264)
(0.0320349 1.47492e-20 -0.0400452)
(0.0353825 -6.74876e-20 -0.0452593)
(0.0325892 -1.08376e-19 -0.0502426)
(0.014821 -1.83922e-19 -0.0604336)
(-0.0407815 -1.02368e-20 -0.0681942)
(-0.00966176 1.78539e-19 -0.0965277)
(-0.106438 -9.18337e-21 -0.100954)
(-0.10324 -1.68012e-19 -0.102498)
(-0.0879989 2.12371e-19 -0.121414)
(-0.0778904 3.03598e-21 -0.125471)
(-0.0626382 -2.00949e-19 -0.134149)
(-0.0488186 -1.31009e-19 -0.136904)
(-0.0350212 3.19392e-19 -0.138303)
(-0.0227248 8.6061e-20 -0.137647)
(-0.0114589 -2.60224e-19 -0.136382)
(-0.0770015 -4.51464e-23 -8.82812e-05)
(-0.0777812 -4.51693e-22 -0.000260619)
(-0.077876 -6.01448e-21 -0.000435301)
(-0.077929 4.29739e-21 -0.00059984)
(-0.0779861 2.30397e-20 -0.000757361)
(-0.0780618 2.17833e-20 -0.000905171)
(-0.0781643 1.07877e-20 -0.0010409)
(-0.0782962 -7.33202e-20 -0.00116249)
(-0.0784566 9.04803e-20 -0.00126911)
(-0.0786417 1.41352e-20 -0.00136075)
(-0.0788464 5.70986e-21 -0.00143736)
(-0.0790656 3.95566e-20 -0.0014983)
(-0.0792936 -2.10335e-20 -0.00154224)
(-0.0795253 1.243e-20 -0.00156731)
(-0.0797557 -2.42377e-20 -0.00157136)
(-0.0799797 5.09702e-20 -0.00155214)
(-0.0801924 -2.48736e-20 -0.00150735)
(-0.0803881 -1.39592e-20 -0.00143466)
(-0.0805611 -2.27913e-20 -0.00133175)
(-0.0807052 -5.95054e-20 -0.00119635)
(-0.0808142 3.16124e-20 -0.00102627)
(-0.0808813 3.31609e-20 -0.000819478)
(-0.0808992 1.17031e-20 -0.000574245)
(-0.0808594 -1.35313e-21 -0.000289347)
(-0.080752 -8.87279e-21 3.39717e-05)
(-0.0805714 -1.61944e-21 0.000398817)
(-0.0803108 1.02201e-19 0.000810534)
(-0.0799611 2.13326e-20 0.00127)
(-0.0795125 1.1948e-20 0.00177875)
(-0.0789551 -1.65805e-20 0.0023382)
(-0.0782789 7.23627e-20 0.00294969)
(-0.077474 -1.91225e-20 0.00361436)
(-0.0765304 6.65239e-20 0.00433329)
(-0.0754382 3.61545e-20 0.0051076)
(-0.074187 5.73807e-20 0.0059384)
(-0.0727669 1.41981e-20 0.00682692)
(-0.0711675 7.59023e-20 0.00777471)
(-0.0693787 -7.30205e-20 0.00878392)
(-0.0673904 4.64037e-20 0.00985765)
(-0.0651925 3.97623e-20 0.0110003)
(-0.0627751 1.13642e-20 0.0122184)
(-0.0601289 1.352e-20 0.0135209)
(-0.0572451 1.41375e-20 0.014921)
(-0.0541166 3.56137e-20 0.0164371)
(-0.0507388 -3.74141e-21 0.0180947)
(-0.0471123 1.16619e-19 0.0199291)
(-0.0432461 -1.02733e-20 0.0219874)
(-0.0391651 1.24493e-20 0.0243309)
(-0.0349203 1.15315e-20 0.0270349)
(-0.030606 1.47736e-20 0.0301828)
(-0.0263767 1.10107e-19 0.0338478)
(-0.0224346 4.7746e-21 0.0380809)
(-0.0190542 -1.04238e-19 0.0428368)
(-0.0165909 -5.45298e-21 0.047757)
(-0.0152171 7.14667e-20 0.0522741)
(-0.0147204 -1.58464e-19 0.0559888)
(-0.0146953 -3.42629e-22 0.0587859)
(-0.0148303 -1.45304e-19 0.0607325)
(-0.0149404 -1.04154e-21 0.0619495)
(-0.0149439 -1.83898e-19 0.0625374)
(-0.0147668 2.67541e-21 0.062606)
(-0.0143449 1.9588e-19 0.0622702)
(-0.0136855 -2.06522e-19 0.0615949)
(-0.0128197 3.6507e-19 0.0606328)
(-0.0117695 4.19168e-19 0.0594342)
(-0.0105536 2.70844e-20 0.0580441)
(-0.00918978 -2.25753e-19 0.0565049)
(-0.00770215 1.64296e-19 0.0548589)
(-0.00612088 6.79482e-20 0.0531496)
(-0.00447997 -1.3909e-20 0.0514174)
(-0.00282443 2.39336e-20 0.0496933)
(-0.00121228 -2.33313e-19 0.0479921)
(0.000297316 -5.61647e-21 0.0463187)
(0.00164493 2.12075e-19 0.0446415)
(0.00278301 1.97475e-19 0.0429076)
(0.00368919 -3.39154e-19 0.0410593)
(0.0043688 1.23849e-19 0.0390417)
(0.0048484 8.20414e-20 0.0368099)
(0.00517071 -7.12904e-20 0.0343285)
(0.00539103 1.06608e-20 0.0315731)
(0.00556798 -2.55616e-20 0.0285317)
(0.00575541 2.65633e-20 0.0252039)
(0.0060026 -1.21517e-19 0.0215992)
(0.00635826 1.54151e-19 0.0177331)
(0.00687227 -1.68624e-20 0.0136255)
(0.00759805 -8.75889e-20 0.00930334)
(0.00859451 -5.26255e-21 0.00480307)
(0.00992675 3.21654e-21 0.000164085)
(0.0116519 3.41815e-20 -0.00453945)
(0.0138179 -3.46984e-20 -0.00919748)
(0.0164679 -2.89694e-20 -0.0137434)
(0.0194971 6.0327e-20 -0.0181464)
(0.0229014 -7.00536e-20 -0.0222922)
(0.0263288 -1.05118e-20 -0.0264793)
(0.0303814 -3.37683e-20 -0.0306499)
(0.0345135 -1.45175e-20 -0.0349398)
(0.0384539 6.3732e-20 -0.0393853)
(0.0371575 7.84373e-21 -0.0440242)
(0.0234731 -1.30534e-19 -0.0520527)
(-0.0185605 -9.8931e-19 -0.0626868)
(-0.00263831 8.98819e-18 -0.0970998)
(-0.103888 -1.70559e-19 -0.0982507)
(-0.0954933 -8.91044e-20 -0.0943953)
(-0.081089 1.61028e-19 -0.109517)
(-0.0712201 1.58451e-19 -0.112497)
(-0.0580439 -3.37644e-20 -0.119659)
(-0.0455491 -2.09696e-21 -0.122911)
(-0.0332021 8.12963e-20 -0.125079)
(-0.0217926 -3.70494e-19 -0.125861)
(-0.011154 5.91123e-20 -0.125904)
(-0.0768159 -3.26799e-23 -0.000100608)
(-0.0775947 -3.7567e-22 -0.000297576)
(-0.0776949 -6.68066e-21 -0.000498469)
(-0.0777552 3.32816e-20 -0.000688492)
(-0.0778218 -3.6447e-20 -0.000870561)
(-0.0779098 1.34752e-20 -0.0010407)
(-0.0780269 -2.24958e-20 -0.00119588)
(-0.0781748 2.28839e-20 -0.00133423)
(-0.0783511 4.5604e-19 -0.00145567)
(-0.078552 1.121e-20 -0.0015606)
(-0.0787731 3.07532e-19 -0.00164869)
(-0.0790099 3.02791e-20 -0.00171849)
(-0.0792576 3.78803e-19 -0.00176788)
(-0.0795114 -1.45626e-20 -0.00179434)
(-0.0797663 3.05183e-19 -0.00179522)
(-0.0800175 2.9687e-20 -0.00176787)
(-0.0802597 4.06579e-19 -0.00170965)
(-0.0804875 3.04577e-19 -0.00161791)
(-0.080695 -3.80793e-19 -0.00149006)
(-0.0808761 3.08881e-19 -0.00132354)
(-0.0810247 3.53812e-19 -0.00111588)
(-0.0811334 3.75751e-19 -0.000865094)
(-0.0811924 1.55568e-20 -0.000569014)
(-0.0811936 1.75072e-19 -0.000228316)
(-0.0811307 1.47738e-19 0.000159919)
(-0.0809991 2.65508e-19 0.000601882)
(-0.0807906 2.69276e-19 0.0010997)
(-0.0804946 -3.51186e-19 0.00165479)
(-0.080101 3.79896e-19 0.00226829)
(-0.0795999 4.09418e-19 0.0029418)
(-0.0789811 3.82297e-19 0.00367688)
(-0.0782349 1.25591e-20 0.00447485)
(-0.077351 2.15368e-19 0.00533692)
(-0.0763196 1.84502e-20 0.0062643)
(-0.0751304 1.15624e-19 0.00725808)
(-0.0737735 4.84043e-20 0.0083195)
(-0.0722391 1.08074e-19 0.00945006)
(-0.0705177 -3.73919e-19 0.0106518)
(-0.0686003 5.32509e-20 0.0119274)
(-0.0664784 1.16276e-19 0.0132808)
(-0.0641442 1.94688e-20 0.0147179)
(-0.0615914 1.27207e-19 0.0162466)
(-0.0588154 2.29305e-20 0.017878)
(-0.0558145 1.11533e-19 0.0196275)
(-0.0525914 -1.06197e-19 0.021516)
(-0.0491552 2.45682e-19 0.0235703)
(-0.0455256 1.9218e-19 0.0258245)
(-0.0417375 3.64306e-20 0.0283191)
(-0.0378489 1.06663e-19 0.0310981)
(-0.0339493 4.25524e-20 0.0342017)
(-0.0301676 2.01782e-19 0.037651)
(-0.0266736 1.24569e-19 0.0414266)
(-0.0236867 -1.98324e-21 0.0454286)
(-0.0214193 -4.44375e-20 0.0494386)
(-0.0198776 2.22592e-20 0.0531756)
(-0.0188824 1.70116e-20 0.0564014)
(-0.0181956 8.88043e-20 0.0589851)
(-0.0176235 4.37024e-20 0.0609073)
(-0.017032 1.22818e-19 0.062213)
(-0.0163362 2.48911e-20 0.0629637)
(-0.015529 3.74987e-20 0.0632223)
(-0.0146034 1.51882e-20 0.0630661)
(-0.0135369 -3.61393e-19 0.0625609)
(-0.0123269 1.9346e-19 0.0617591)
(-0.0109834 2.74945e-19 0.0607079)
(-0.00951852 -2.41947e-19 0.0594503)
(-0.00794942 -3.30845e-19 0.0580269)
(-0.00629423 -2.4828e-19 0.0564752)
(-0.00457901 -1.51228e-21 0.054829)
(-0.00283745 2.27063e-19 0.0531171)
(-0.00111302 3.48147e-20 0.0513601)
(0.00055835 -2.31434e-19 0.0495748)
(0.00212555 -3.74583e-20 0.0477595)
(0.00354532 2.12622e-19 0.0459054)
(0.00479216 -1.17546e-19 0.0439819)
(0.00586002 -7.86701e-20 0.0419499)
(0.00676027 1.90433e-19 0.0397707)
(0.00751553 3.30818e-20 0.0374104)
(0.00815926 -1.42256e-19 0.0348412)
(0.00873433 -2.79095e-20 0.0320426)
(0.00928562 1.22456e-19 0.0290038)
(0.00985441 3.00833e-20 0.0257248)
(0.0104802 -1.3068e-19 0.0222139)
(0.0112042 -3.96532e-20 0.0184856)
(0.0120686 1.36713e-19 0.0145598)
(0.0131166 -6.92449e-20 0.010462)
(0.0143903 -7.0131e-20 0.00622496)
(0.0159291 9.18773e-21 0.0018809)
(0.0177805 3.69735e-20 -0.00251361)
(0.0199232 -2.74334e-20 -0.00686778)
(0.0224015 -5.40007e-20 -0.0111314)
(0.0251429 -1.37332e-20 -0.015256)
(0.0282312 -4.41238e-21 -0.0192087)
(0.031423 -7.70242e-20 -0.0230258)
(0.0353152 -4.09768e-20 -0.0267784)
(0.039114 -9.97581e-20 -0.0303302)
(0.0431813 -7.65448e-22 -0.0340072)
(0.0429678 -2.05762e-19 -0.0378411)
(0.0345845 -1.43248e-19 -0.0431409)
(0.00785288 4.64878e-20 -0.0546724)
(0.00920711 1.91627e-19 -0.086067)
(-0.10161 -2.22299e-19 -0.0920289)
(-0.088507 1.70979e-19 -0.0856876)
(-0.0744545 2.56086e-19 -0.0987747)
(-0.0650793 6.56823e-20 -0.101178)
(-0.0536884 -2.94333e-19 -0.107206)
(-0.0426621 -1.05023e-19 -0.110548)
(-0.0317417 2.41642e-19 -0.113021)
(-0.0212987 1.0828e-19 -0.114423)
(-0.0111176 -2.56274e-19 -0.115078)
(-0.0766044 -2.20173e-23 -0.000114397)
(-0.0773814 -1.17975e-22 -0.000338693)
(-0.0774869 -3.73167e-21 -0.000568328)
(-0.0775551 6.92891e-20 -0.000786167)
(-0.0776328 8.39221e-21 -0.000994867)
(-0.0777359 1.35866e-21 -0.00118903)
(-0.0778705 -6.83395e-21 -0.0013653)
(-0.0780364 8.97237e-20 -0.00152253)
(-0.0782302 -3.29833e-19 -0.0016615)
(-0.0784486 -4.46386e-19 -0.00178255)
(-0.0786885 -3.94733e-19 -0.00188451)
(-0.0789463 -3.38899e-20 -0.00196509)
(-0.0792177 -3.53058e-19 -0.00202154)
(-0.079498 -4.43288e-19 -0.00205091)
(-0.0797822 -3.75202e-19 -0.00205025)
(-0.0800654 -3.54118e-20 -0.00201658)
(-0.0803427 -3.56687e-19 -0.00194694)
(-0.0806083 -3.24402e-19 -0.00183837)
(-0.0808563 -2.81477e-20 -0.00168795)
(-0.0810802 -3.206e-19 -0.00149288)
(-0.0812731 -3.77756e-19 -0.00125061)
(-0.0814268 -3.63299e-19 -0.000960322)
(-0.0815337 -5.83766e-20 -0.000619238)
(-0.0815871 -4.93741e-19 -0.000222094)
(-0.0815816 1.27974e-20 0.000234433)
(-0.0815096 -4.32632e-19 0.000752961)
(-0.0813621 9.64458e-19 0.00133535)
(-0.0811287 1.03039e-19 0.00198348)
(-0.0807991 -3.95485e-19 0.00269919)
(-0.0803635 -3.98523e-19 0.00348457)
(-0.0798118 -3.79277e-19 0.00434139)
(-0.0791338 -1.22407e-19 0.00527109)
(-0.0783195 -5.23068e-19 0.00627501)
(-0.0773585 1.77456e-20 0.00735425)
(-0.076241 7.23472e-19 0.00850981)
(-0.074957 4.69707e-20 0.00974274)
(-0.073497 6.59637e-19 0.0110542)
(-0.0718521 -6.43427e-20 0.0124457)
(-0.070014 -1.40131e-20 0.0139192)
(-0.0679756 5.58325e-19 0.0154779)
(-0.0657309 4.47491e-20 0.017126)
(-0.0632759 5.95703e-19 0.0188694)
(-0.0606091 5.07036e-20 0.0207166)
(-0.057733 4.95758e-19 0.0226788)
(-0.0546548 -4.01296e-20 0.0247707)
(-0.051389 -1.98936e-19 0.0270107)
(-0.0479601 4.12281e-19 0.0294201)
(-0.0444061 4.38979e-20 0.0320216)
(-0.0407827 4.26132e-19 0.0348363)
(-0.0371675 7.04184e-20 0.0378766)
(-0.0336609 4.54887e-19 0.0411353)
(-0.0303827 4.37259e-19 0.0445723)
(-0.0274588 3.21985e-19 0.0480981)
(-0.0249838 1.82736e-19 0.0515668)
(-0.0229691 1.65043e-19 0.0548034)
(-0.0213459 2.02089e-21 0.0576527)
(-0.0199943 1.1612e-20 0.0600107)
(-0.0187928 1.18635e-19 0.0618322)
(-0.0176453 3.6009e-20 0.0631223)
(-0.0164883 8.46521e-20 0.0639178)
(-0.0152858 3.70661e-20 0.0642661)
(-0.0140128 3.55485e-19 0.0642174)
(-0.01265 -2.014e-19 0.0638215)
(-0.0111916 -1.78318e-20 0.0631252)
(-0.0096425 3.4509e-19 0.0621711)
(-0.0080132 1.04428e-19 0.0609978)
(-0.00631759 -2.07832e-19 0.0596415)
(-0.00457371 -4.37036e-20 0.0581352)
(-0.0028037 3.00882e-20 0.0565087)
(-0.00103208 2.27478e-19 0.0547864)
(0.000717688 2.71019e-20 0.052996)
(0.00240486 -4.27582e-19 0.0511458)
(0.00400311 -1.46167e-20 0.0492357)
(0.00548276 3.96774e-19 0.047254)
(0.0068223 3.8971e-20 0.0451821)
(0.0080131 -3.25e-19 0.0429966)
(0.00905953 3.35599e-19 0.040673)
(0.00997799 9.19864e-20 0.0381885)
(0.0107965 -1.70134e-19 0.0355234)
(0.0115506 6.59129e-20 0.0326636)
(0.0122764 1.25638e-19 0.029603)
(0.0130077 3.19706e-20 0.0263439)
(0.0137784 -2.10433e-19 0.0228953)
(0.0146251 2.00659e-19 0.0192719)
(0.0155862 4.78912e-20 0.015494)
(0.016701 -1.21837e-19 0.0115879)
(0.0180083 7.14652e-20 0.00758551)
(0.0195451 7.66986e-20 0.00352337)
(0.021359 2.61635e-20 -0.000553232)
(0.0234415 -8.61531e-21 -0.00458584)
(0.0258387 7.26965e-20 -0.00852252)
(0.0284889 2.86937e-20 -0.012302)
(0.0315351 1.16846e-20 -0.015994)
(0.0346712 1.0471e-19 -0.0193833)
(0.0385793 9.38036e-21 -0.0228243)
(0.0421821 1.25175e-19 -0.0257001)
(0.0463867 1.19098e-19 -0.0287658)
(0.0468858 1.37379e-19 -0.0317595)
(0.0428944 -1.3258e-19 -0.0342964)
(0.0285579 -4.1112e-19 -0.0448479)
(0.0224427 6.33789e-18 -0.0711327)
(-0.0990931 -2.16436e-19 -0.0827877)
(-0.0833319 3.14397e-20 -0.0761577)
(-0.0690297 1.8674e-19 -0.0880915)
(-0.0599654 -1.43724e-20 -0.090568)
(-0.049557 -2.16222e-19 -0.0958417)
(-0.0395123 -3.22946e-20 -0.0992553)
(-0.0295795 3.13062e-19 -0.101918)
(-0.0199992 -2.77285e-19 -0.103671)
(-0.0105512 -1.59105e-19 -0.104703)
(-0.0763642 -3.25173e-23 -0.000129514)
(-0.0771388 3.53475e-22 -0.000383635)
(-0.0772496 1.14251e-20 -0.000644289)
(-0.0773265 3.31456e-19 -0.000892015)
(-0.0774177 8.04417e-21 -0.00112915)
(-0.0775386 -1.43624e-20 -0.00134884)
(-0.0776932 8.96707e-21 -0.00154799)
(-0.0778786 1.41061e-20 -0.00172678)
(-0.0780911 3.15132e-19 -0.0018865)
(-0.078329 4.59277e-20 -0.00202669)
(-0.0785906 3.62539e-19 -0.00214508)
(-0.078873 5.65966e-20 -0.00223874)
(-0.079172 3.66898e-19 -0.00230453)
(-0.0794829 -3.88913e-20 -0.0023393)
(-0.0798008 3.45106e-19 -0.00233979)
(-0.0801208 5.77993e-20 -0.00230272)
(-0.0804378 3.63589e-19 -0.00222486)
(-0.080746 3.87799e-19 -0.00210304)
(-0.0810393 4.5046e-19 -0.00193424)
(-0.0813113 3.5918e-19 -0.00171531)
(-0.081555 3.35788e-19 -0.00144305)
(-0.0817628 3.29745e-19 -0.00111407)
(-0.0819292 -3.7962e-19 -0.000725468)
(-0.0820464 -5.84905e-19 -0.000272871)
(-0.0821061 6.7531e-19 0.000247414)
(-0.0821009 -7.99453e-19 0.000838513)
(-0.0820219 1.18998e-18 0.00150256)
(-0.0818593 5.4331e-19 0.00224154)
(-0.0816029 3.35199e-19 0.00305789)
(-0.0812426 3.41697e-19 0.00395376)
(-0.0807679 2.92434e-19 0.00493113)
(-0.0801685 -3.65515e-19 0.00599156)
(-0.0794338 -7.86699e-19 0.00713643)
(-0.0785535 -1.45287e-19 0.00836674)