/*--------------------------------*- C++ -*----------------------------------*\
| =========                 |                                                 |
| \\      /  F ield         | OpenFOAM: The Open Source CFD Toolbox           |
|  \\    /   O peration     | Version:  v2106                                 |
|   \\  /    A nd           | Website:  www.openfoam.com                      |
|    \\/     M anipulation  |                                                 |
\*---------------------------------------------------------------------------*/
FoamFile
{
    version     2.0;
    format      ascii;
    arch        "LSB;label=32;scalar=64";
    class       volScalarField;
    location    "1.8";
    object      k;
}
// * * * * * * * * * * * * * * * * * * * * * * * * * * * * * * * * * * * * * //

dimensions      [0 2 -2 0 0 0 0];

internalField   nonuniform List<scalar> 
29678
(
0.000126527
0.000172986
0.000193855
0.000202582
0.000206927
0.000209475
0.00021118
0.00021238
0.000213272
0.000213987
0.00021461
0.000215199
0.000215792
0.000216416
0.000217079
0.000217721
0.000218337
0.000218934
0.000219515
0.000220086
0.000220651
0.000221144
0.000221734
0.000222355
0.000222965
0.000223559
0.000224067
0.000224418
0.000224668
0.000224855
0.000224966
0.00022501
0.000225023
0.000225002
0.000224953
0.000224878
0.000224781
0.000224621
0.000224387
0.00022411
0.000223805
0.000223531
0.000223353
0.000223265
0.000223301
0.000223443
0.000223626
0.000223856
0.000224184
0.000224606
0.000225086
0.000225635
0.000226262
0.000226944
0.000227667
0.000228428
0.000229223
0.000229992
0.000230722
0.000231343
0.000231955
0.000232332
0.000232314
0.000232429
0.000232685
0.00023303
0.000232669
0.000233327
0.000232818
0.000232792
0.000232504
0.000231296
0.000231337
0.000232033
0.00023252
0.000232627
0.000232148
0.000230411
0.000230114
0.000231989
0.00023433
0.000232588
0.000232734
0.00023388
0.000235301
0.000236173
0.000235643
0.000233308
0.00023329
0.000237049
0.000235618
0.000235584
0.000242065
0.000247819
0.000254562
0.000274372
0.000306933
0.000363445
0.000387478
0.000382149
0.000351194
0.000319319
0.000295187
0.000276912
0.000263173
0.000253159
0.000244343
0.000235701
0.00022684
0.000220126
0.000126523
0.000172988
0.000193935
0.000202712
0.000207141
0.000209775
0.000211533
0.000212771
0.000213707
0.000214472
0.000215155
0.000215811
0.00021648
0.000217129
0.000217749
0.000218351
0.000218938
0.000219517
0.000220088
0.000220655
0.000221225
0.000221808
0.000222397
0.00022298
0.000223548
0.000224099
0.00022461
0.000224992
0.000225271
0.000225484
0.000225617
0.000225689
0.000225724
0.000225719
0.000225682
0.000225613
0.000225513
0.000225347
0.000225112
0.00022484
0.000224555
0.000224311
0.000224157
0.000224104
0.000224172
0.000224338
0.000224556
0.000224829
0.000225192
0.000225641
0.000226156
0.000226744
0.000227404
0.00022812
0.000228826
0.00022951
0.000230189
0.000230861
0.000231513
0.000232129
0.000232576
0.00023225
0.00023208
0.000232208
0.000232533
0.000232669
0.000231722
0.000230628
0.000229971
0.000230266
0.000229684
0.000228283
0.000227602
0.000227471
0.000227305
0.000227109
0.00022679
0.000226239
0.000226788
0.00022657
0.000226839
0.000227641
0.000228531
0.000230285
0.000231459
0.000232292
0.000230601
0.000230354
0.000230664
0.000230607
0.000231578
0.000233597
0.000236068
0.000241803
0.000250676
0.000268913
0.000302642
0.000354208
0.000388828
0.000389849
0.00036471
0.00033051
0.000302444
0.000280631
0.000262376
0.000248172
0.000237133
0.000229049
0.000223147
0.000219044
0.000126545
0.000173015
0.000194036
0.000202868
0.000207345
0.000210023
0.00021179
0.000213031
0.000213967
0.000214732
0.000215412
0.000216065
0.000216726
0.000217365
0.000217978
0.000218574
0.000219158
0.000219732
0.000220301
0.000220867
0.000221431
0.000221993
0.00022255
0.000223098
0.000223639
0.000224169
0.000224688
0.000225189
0.000225594
0.000225907
0.000226137
0.000226293
0.000226388
0.000226429
0.000226421
0.000226367
0.000226267
0.000226113
0.000225908
0.00022567
0.00022542
0.000225188
0.000225014
0.00022492
0.000224916
0.000224996
0.000225137
0.000225332
0.000225591
0.000225919
0.000226308
0.000226755
0.00022726
0.000227817
0.000228415
0.000229047
0.000229708
0.000230351
0.000230962
0.000231383
0.000231304
0.000231067
0.000230924
0.000230839
0.000230792
0.000230752
0.000230478
0.000229777
0.000229289
0.000228982
0.00022844
0.000227586
0.000226844
0.000226241
0.0002257
0.00022529
0.00022511
0.000225149
0.000225614
0.000226042
0.000226554
0.000227532
0.000228507
0.00022955
0.00023026
0.000230872
0.000230572
0.000230379
0.000230626
0.000230792
0.000231709
0.000233465
0.000235765
0.000240406
0.00024767
0.000265098
0.000300578
0.000361087
0.000408504
0.000406718
0.000375429
0.000338648
0.00030901
0.000286436
0.000266901
0.000250935
0.000238343
0.0002293
0.000223198
0.000219094
0.000126581
0.000173067
0.000194164
0.000203063
0.000207572
0.00021027
0.00021203
0.00021326
0.000214185
0.000214939
0.000215607
0.000216245
0.000216892
0.000217525
0.000218135
0.000218729
0.000219312
0.000219887
0.000220455
0.000221018
0.000221576
0.000222132
0.000222686
0.000223233
0.000223773
0.000224303
0.00022482
0.000225325
0.000225795
0.000226161
0.000226437
0.000226634
0.000226766
0.00022684
0.000226861
0.000226834
0.000226761
0.000226641
0.000226482
0.000226298
0.000226105
0.000225921
0.000225773
0.000225685
0.000225669
0.000225727
0.000225848
0.000226027
0.000226267
0.000226567
0.000226925
0.000227336
0.000227798
0.000228302
0.000228837
0.000229387
0.000229933
0.000230437
0.00023082
0.000231009
0.000230982
0.000230822
0.000230738
0.000230752
0.000230795
0.000230744
0.000230447
0.000229944
0.000229538
0.000229215
0.000228715
0.000228031
0.000227425
0.000226925
0.000226494
0.000226181
0.000226038
0.000226075
0.000226412
0.00022678
0.000227328
0.000228238
0.000229079
0.000229997
0.000230807
0.000231338
0.000231177
0.000231371
0.000231903
0.000232569
0.000233865
0.000235904
0.000238415
0.000242638
0.000248481
0.000262319
0.000296457
0.000351382
0.000394265
0.000394777
0.000377512
0.000340682
0.000311839
0.000290191
0.000271172
0.000254881
0.000241503
0.000231467
0.000224408
0.000219569
0.000126625
0.000173139
0.000194307
0.000203285
0.000207832
0.000210543
0.000212295
0.000213513
0.000214426
0.000215167
0.000215821
0.000216445
0.000217075
0.000217703
0.000218309
0.000218901
0.000219484
0.00022006
0.000220628
0.000221192
0.00022175
0.000222302
0.000222848
0.000223386
0.000223915
0.000224435
0.000224945
0.000225445
0.000225887
0.000226248
0.00022654
0.000226769
0.000226941
0.000227061
0.000227132
0.000227158
0.00022714
0.000227083
0.000226993
0.000226882
0.000226762
0.000226648
0.000226559
0.000226512
0.000226519
0.000226584
0.000226703
0.000226874
0.000227095
0.000227366
0.000227683
0.00022804
0.000228433
0.000228853
0.000229287
0.000229721
0.000230137
0.00023051
0.000230812
0.000231003
0.000231054
0.000231008
0.000230952
0.000230902
0.000230832
0.0002307
0.000230454
0.000230089
0.000229689
0.000229276
0.000228798
0.000228253
0.000227713
0.000227225
0.000226826
0.000226563
0.000226463
0.00022652
0.000226755
0.000227131
0.000227681
0.00022841
0.000229132
0.000229832
0.000230484
0.000231052
0.000231487
0.000232036
0.000232836
0.000233852
0.000235297
0.000237385
0.000240114
0.000243994
0.000249407
0.000262144
0.000294952
0.000346326
0.000379457
0.0003803
0.000375669
0.000339346
0.00031118
0.000291171
0.000273649
0.000257791
0.000243989
0.000233163
0.000225345
0.000219945
0.000126676
0.000173229
0.000194467
0.000203527
0.000208119
0.000210841
0.000212586
0.000213792
0.000214692
0.000215419
0.00021606
0.000216669
0.000217283
0.000217904
0.000218507
0.000219098
0.000219681
0.000220258
0.000220829
0.000221394
0.000221954
0.000222508
0.000223056
0.000223598
0.000224132
0.000224659
0.000225176
0.000225684
0.000226182
0.000226646
0.000227026
0.000227329
0.000227566
0.00022774
0.00022786
0.000227928
0.000227951
0.000227935
0.000227886
0.000227818
0.00022774
0.000227666
0.000227611
0.000227588
0.000227608
0.000227676
0.000227791
0.000227952
0.000228157
0.000228404
0.00022869
0.000229009
0.000229356
0.000229721
0.000230095
0.000230463
0.00023081
0.000231116
0.000231356
0.000231506
0.00023156
0.000231548
0.000231515
0.000231474
0.000231406
0.000231275
0.000231047
0.000230729
0.000230366
0.000229974
0.000229538
0.000229068
0.00022861
0.000228204
0.000227884
0.000227683
0.000227612
0.00022767
0.000227876
0.000228231
0.000228751
0.000229412
0.000230098
0.000230779
0.000231437
0.000232053
0.000232627
0.000233324
0.000234271
0.000235466
0.000237043
0.000239132
0.000241735
0.000244962
0.000249837
0.000260909
0.000290709
0.000337601
0.000365064
0.000366183
0.000370055
0.000334248
0.000307012
0.000288973
0.000273857
0.000259538
0.000246121
0.000234944
0.000226458
0.000220426
0.000126731
0.000173336
0.000194645
0.000203783
0.000208422
0.000211157
0.000212898
0.000214093
0.00021498
0.000215694
0.000216321
0.000216917
0.000217517
0.00021813
0.00021873
0.000219321
0.000219906
0.000220485
0.000221059
0.000221628
0.000222191
0.000222749
0.000223301
0.000223847
0.000224385
0.000224916
0.000225439
0.000225953
0.000226458
0.000226926
0.000227322
0.000227653
0.000227926
0.000228144
0.000228313
0.000228435
0.000228517
0.000228564
0.000228584
0.000228584
0.000228576
0.000228568
0.000228573
0.0002286
0.000228658
0.000228753
0.000228885
0.000229055
0.000229261
0.000229501
0.000229773
0.00023007
0.000230387
0.000230716
0.000231046
0.000231366
0.000231661
0.000231916
0.000232116
0.00023225
0.000232315
0.000232328
0.000232302
0.000232241
0.000232138
0.00023198
0.000231752
0.000231456
0.000231108
0.000230723
0.000230305
0.000229871
0.000229447
0.000229068
0.000228766
0.000228567
0.00022848
0.000228508
0.000228665
0.000228961
0.000229402
0.000229958
0.000230562
0.000231182
0.000231819
0.000232486
0.00023321
0.000234071
0.000235159
0.000236506
0.000238208
0.000240367
0.00024304
0.000246076
0.000250775
0.000260776
0.000287568
0.000328329
0.000348517
0.000350887
0.000362021
0.000326482
0.000300241
0.000284149
0.000271869
0.000259873
0.000247523
0.000236438
0.000227497
0.000220906
0.000126787
0.000173457
0.00019484
0.000204048
0.000208735
0.000211484
0.000213224
0.000214412
0.000215288
0.00021599
0.000216605
0.000217189
0.000217777
0.000218383
0.000218982
0.000219574
0.000220161
0.000220743
0.000221322
0.000221896
0.000222465
0.00022303
0.000223589
0.000224142
0.000224689
0.00022523
0.000225764
0.000226289
0.000226806
0.000227315
0.000227775
0.00022817
0.000228506
0.000228786
0.000229014
0.000229197
0.000229339
0.000229445
0.000229523
0.000229581
0.000229628
0.000229672
0.000229723
0.000229789
0.000229877
0.000229993
0.000230137
0.000230312
0.000230516
0.000230746
0.000231
0.000231273
0.000231559
0.00023185
0.000232138
0.000232412
0.000232661
0.000232873
0.000233039
0.00023315
0.000233209
0.00023322
0.000233189
0.000233119
0.000233006
0.000232844
0.000232623
0.000232345
0.000232019
0.000231654
0.000231263
0.00023086
0.000230468
0.000230117
0.000229832
0.000229635
0.000229539
0.000229552
0.000229688
0.000229958
0.000230359
0.00023087
0.000231442
0.000232049
0.000232695
0.000233402
0.0002342
0.000235143
0.000236301
0.000237724
0.000239455
0.000241534
0.000243992
0.000246658
0.00025106
0.000259736
0.000283763
0.000320707
0.000338013
0.000340816
0.000353053
0.000316452
0.000291677
0.000277593
0.000268218
0.000258907
0.000248188
0.000237657
0.000228511
0.000221419
0.000126843
0.000173591
0.000195049
0.000204321
0.000209055
0.00021182
0.000213563
0.000214747
0.000215613
0.000216305
0.000216911
0.000217486
0.000218065
0.000218664
0.000219263
0.000219857
0.000220448
0.000221036
0.00022162
0.000222202
0.00022278
0.000223354
0.000223923
0.000224488
0.000225047
0.0002256
0.000226147
0.000226686
0.000227218
0.000227742
0.000228249
0.000228699
0.000229091
0.000229431
0.000229721
0.000229967
0.000230173
0.000230344
0.000230488
0.00023061
0.000230718
0.00023082
0.000230923
0.000231035
0.000231161
0.000231305
0.000231471
0.000231658
0.000231866
0.000232094
0.000232338
0.000232594
0.000232857
0.00023312
0.000233375
0.000233614
0.000233829
0.000234009
0.000234148
0.000234242
0.000234293
0.000234296
0.000234253
0.000234168
0.00023404
0.000233866
0.000233642
0.000233368
0.00023305
0.000232696
0.000232317
0.000231928
0.000231552
0.00023121
0.000230926
0.000230719
0.000230604
0.000230593
0.000230697
0.000230924
0.000231268
0.000231715
0.00023223
0.0002328
0.000233433
0.000234154
0.000234992
0.000235984
0.000237182
0.000238646
0.00024037
0.00024235
0.000244648
0.000247076
0.000251136
0.000258527
0.000279594
0.000312855
0.000328517
0.000331334
0.0003444
0.000305139
0.000282396
0.000270715
0.000264037
0.000257138
0.00024824
0.000238558
0.000229439
0.000221946
0.000126896
0.000173737
0.00019527
0.000204598
0.000209378
0.000212163
0.000213913
0.000215094
0.000215955
0.00021664
0.000217238
0.000217807
0.000218379
0.000218974
0.000219575
0.000220173
0.000220769
0.000221365
0.000221959
0.000222551
0.00022314
0.000223726
0.000224309
0.000224887
0.000225461
0.000226029
0.000226591
0.000227147
0.000227696
0.000228238
0.000228771
0.000229283
0.000229739
0.000230144
0.000230501
0.000230815
0.000231089
0.000231328
0.000231538
0.000231725
0.000231896
0.000232056
0.000232212
0.000232369
0.000232534
0.000232709
0.000232898
0.0002331
0.000233315
0.000233543
0.000233779
0.000234021
0.000234264
0.000234502
0.000234729
0.000234937
0.000235119
0.000235269
0.000235381
0.000235458
0.00023549
0.000235476
0.000235417
0.000235316
0.000235172
0.000234986
0.000234756
0.000234483
0.00023417
0.000233823
0.000233453
0.000233074
0.000232704
0.000232363
0.000232071
0.000231848
0.000231709
0.000231668
0.000231736
0.000231919
0.000232212
0.000232604
0.000233073
0.000233611
0.00023423
0.000234951
0.0002358
0.000236806
0.000237999
0.000239434
0.000241033
0.00024284
0.000244928
0.000247083
0.000250813
0.000257226
0.000276097
0.000305799
0.000319687
0.000322312
0.00033853
0.00029709
0.000274753
0.000265121
0.000260309
0.000255187
0.000247887
0.000239176
0.000230263
0.000222478
0.000126944
0.000173894
0.000195499
0.00020488
0.000209706
0.000212513
0.000214272
0.000215455
0.000216313
0.000216993
0.000217587
0.000218152
0.000218721
0.000219314
0.000219919
0.000220524
0.000221129
0.000221735
0.000222341
0.000222946
0.00022355
0.000224151
0.000224749
0.000225344
0.000225934
0.00022652
0.000227101
0.000227676
0.000228244
0.000228806
0.00022936
0.000229906
0.000230432
0.000230907
0.000231336
0.000231722
0.000232068
0.000232379
0.00023266
0.000232915
0.00023315
0.00023337
0.000233581
0.000233787
0.000233994
0.000234203
0.000234417
0.000234638
0.000234864
0.000235095
0.000235328
0.00023556
0.000235787
0.000236004
0.000236207
0.000236388
0.000236542
0.000236666
0.000236759
0.000236814
0.000236827
0.000236793
0.000236714
0.000236593
0.000236432
0.00023623
0.000235989
0.000235709
0.000235392
0.000235046
0.000234677
0.000234299
0.000233927
0.000233579
0.000233272
0.000233026
0.000232858
0.000232783
0.000232812
0.000232949
0.000233191
0.00023353
0.000233954
0.000234457
0.000235052
0.000235758
0.000236594
0.000237582
0.000238723
0.000240049
0.000241483
0.000243105
0.000244974
0.000246848
0.000250264
0.00025599
0.000273395
0.000300156
0.000312795
0.000315204
0.000335537
0.000293376
0.000269922
0.000261503
0.00025744
0.00025344
0.000247352
0.000239576
0.000230974
0.000223001
0.000126985
0.000174061
0.000195737
0.000205169
0.000210039
0.00021287
0.000214641
0.000215829
0.000216687
0.000217365
0.000217957
0.000218521
0.000219091
0.000219685
0.000220298
0.000220913
0.000221531
0.00022215
0.000222771
0.000223392
0.000224012
0.000224631
0.000225247
0.00022586
0.00022647
0.000227076
0.000227678
0.000228275
0.000228866
0.000229451
0.000230028
0.000230599
0.00023116
0.00023171
0.000232214
0.000232677
0.0002331
0.000233487
0.000233842
0.000234169
0.000234472
0.000234756
0.000235025
0.000235283
0.000235534
0.00023578
0.000236024
0.000236267
0.000236508
0.000236746
0.000236979
0.000237205
0.000237421
0.000237622
0.000237804
0.000237962
0.000238092
0.000238196
0.000238267
0.0002383
0.000238289
0.00023823
0.000238128
0.000237985
0.000237802
0.000237581
0.000237323
0.00023703
0.000236705
0.000236353
0.00023598
0.000235597
0.000235218
0.000234856
0.000234531
0.000234258
0.000234056
0.000233941
0.000233925
0.000234011
0.000234199
0.000234485
0.00023486
0.000235324
0.000235886
0.000236561
0.000237362
0.000238303
0.000239349
0.000240539
0.000241815
0.000243258
0.000244911
0.00024651
0.000249658
0.000254966
0.000271411
0.000296169
0.000307624
0.000309906
0.000335239
0.000293521
0.00026727
0.000259596
0.000255443
0.00025199
0.0002468
0.000239859
0.000231601
0.000223519
0.000127017
0.000174239
0.000195982
0.000205466
0.000210378
0.000213235
0.000215022
0.000216217
0.000217079
0.000217758
0.00021835
0.000218916
0.000219489
0.00022009
0.000220714
0.000221344
0.000221977
0.000222614
0.000223252
0.000223891
0.00022453
0.000225169
0.000225806
0.00022644
0.000227072
0.000227701
0.000228327
0.000228948
0.000229564
0.000230175
0.00023078
0.000231378
0.000231967
0.000232548
0.000233118
0.000233666
0.00023417
0.000234637
0.000235071
0.000235474
0.000235849
0.000236201
0.000236532
0.000236846
0.000237145
0.000237433
0.000237711
0.000237979
0.000238239
0.000238488
0.000238727
0.000238951
0.00023916
0.000239349
0.000239515
0.000239654
0.000239768
0.000239853
0.000239902
0.000239913
0.000239875
0.00023979
0.000239661
0.000239492
0.000239284
0.000239039
0.00023876
0.000238449
0.000238109
0.000237745
0.000237362
0.000236968
0.000236576
0.000236198
0.000235849
0.000235546
0.000235307
0.000235148
0.000235081
0.000235112
0.000235243
0.000235472
0.000235795
0.000236214
0.000236734
0.000237366
0.000238117
0.000238987
0.000239925
0.000240987
0.000242121
0.000243385
0.000244827
0.000246174
0.000249115
0.000254224
0.000270036
0.000293568
0.000304082
0.000305947
0.000338417
0.00029703
0.00026666
0.000258899
0.000254215
0.000250785
0.000246225
0.000240062
0.000232167
0.000224038
0.000127037
0.000174429
0.000196238
0.000205773
0.000210725
0.00021361
0.000215416
0.000216624
0.000217491
0.000218172
0.000218766
0.000219337
0.00021992
0.000220532
0.000221172
0.000221819
0.000222471
0.000223127
0.000223786
0.000224446
0.000225107
0.000225768
0.000226428
0.000227086
0.000227743
0.000228398
0.00022905
0.000229699
0.000230343
0.000230984
0.000231619
0.000232248
0.000232869
0.000233482
0.000234085
0.000234677
0.000235258
0.000235813
0.000236329
0.000236812
0.000237264
0.000237687
0.000238085
0.000238459
0.000238812
0.000239145
0.000239461
0.000239759
0.000240042
0.000240308
0.000240556
0.000240784
0.000240991
0.000241174
0.000241329
0.000241456
0.00024156
0.000241627
0.000241658
0.000241647
0.00024158
0.000241465
0.000241306
0.000241107
0.00024087
0.000240598
0.000240294
0.000239959
0.000239599
0.000239216
0.000238818
0.000238409
0.000238
0.000237601
0.000237226
0.000236891
0.000236612
0.000236406
0.000236285
0.000236257
0.000236326
0.000236495
0.000236762
0.000237129
0.000237601
0.000238182
0.000238872
0.000239666
0.000240507
0.000241458
0.000242462
0.000243551
0.00024479
0.000245916
0.00024872
0.000253774
0.00026917
0.000292174
0.000302854
0.000304176
0.000343722
0.000303115
0.00026781
0.00025909
0.000253593
0.000249795
0.000245414
0.000239955
0.000232668
0.000224572
0.000127042
0.000174631
0.000196504
0.000206093
0.000211084
0.000214
0.00021583
0.000217054
0.000217927
0.000218609
0.000219208
0.000219789
0.000220386
0.000221014
0.000221674
0.000222342
0.000223015
0.000223693
0.000224375
0.000225059
0.000225744
0.00022643
0.000227116
0.000227801
0.000228486
0.000229169
0.000229851
0.000230531
0.000231208
0.000231881
0.00023255
0.000233214
0.000233871
0.00023452
0.00023516
0.000235789
0.000236407
0.000237011
0.000237601
0.000238168
0.0002387
0.000239198
0.000239665
0.000240103
0.000240512
0.000240895
0.000241252
0.000241585
0.000241894
0.00024218
0.000242441
0.000242678
0.000242887
0.000243068
0.000243218
0.000243344
0.000243436
0.00024349
0.000243505
0.000243468
0.000243372
0.000243227
0.000243039
0.000242813
0.000242549
0.000242249
0.000241917
0.000241555
0.00024117
0.000240764
0.000240345
0.000239916
0.000239487
0.000239064
0.000238661
0.000238292
0.000237972
0.000237716
0.000237539
0.000237449
0.000237454
0.000237558
0.000237763
0.000238073
0.000238489
0.000239015
0.000239644
0.000240368
0.000241131
0.000241995
0.000242884
0.000243809
0.000244857
0.000245799
0.000248526
0.000253596
0.000268618
0.000291422
0.000303496
0.000304562
0.000351751
0.000311293
0.000270816
0.000259907
0.000253428
0.000248932
0.000244568
0.000239403
0.000232813
0.000225099
0.00012703
0.000174846
0.000196783
0.00020643
0.000211459
0.000214409
0.000216269
0.000217511
0.000218387
0.000219071
0.000219679
0.000220274
0.000220889
0.000221539
0.000222222
0.000222914
0.000223612
0.000224315
0.000225022
0.000225732
0.000226445
0.000227158
0.000227873
0.000228588
0.000229303
0.000230018
0.000230733
0.000231448
0.00023216
0.000232871
0.000233578
0.000234281
0.000234978
0.000235668
0.000236349
0.000237021
0.00023768
0.000238326
0.000238957
0.00023957
0.000240164
0.000240734
0.000241269
0.00024177
0.000242236
0.000242669
0.000243069
0.000243437
0.000243774
0.000244079
0.000244353
0.000244596
0.000244807
0.000244982
0.00024513
0.000245243
0.000245317
0.000245351
0.000245343
0.000245274
0.000245151
0.000244987
0.000244785
0.000244546
0.000244269
0.000243954
0.000243603
0.000243221
0.000242811
0.000242381
0.000241936
0.000241484
0.00024103
0.000240583
0.000240151
0.000239746
0.000239383
0.000239078
0.000238843
0.000238691
0.000238629
0.000238664
0.000238802
0.000239048
0.000239404
0.000239871
0.000240442
0.000241107
0.000241812
0.00024261
0.000243407
0.000244194
0.00024507
0.00024589
0.000248594
0.000253705
0.000268243
0.000290682
0.000304215
0.000305388
0.000362474
0.000322456
0.000275849
0.000260983
0.000253457
0.000247948
0.000243525
0.000238501
0.000232515
0.00022553
0.000126999
0.000175074
0.000197081
0.000206788
0.000211855
0.000214846
0.000216742
0.000217997
0.000218874
0.000219562
0.000220182
0.000220795
0.000221433
0.000222108
0.000222818
0.000223538
0.000224264
0.000224995
0.00022573
0.000226469
0.000227211
0.000227954
0.0002287
0.000229448
0.000230197
0.000230948
0.0002317
0.000232452
0.000233205
0.000233957
0.000234707
0.000235454
0.000236196
0.000236932
0.000237661
0.00023838
0.000239087
0.00023978
0.000240457
0.000241114
0.000241749
0.00024236
0.000242945
0.000243501
0.000244019
0.000244497
0.000244937
0.000245337
0.000245697
0.000246019
0.000246302
0.000246545
0.00024675
0.000246918
0.000247056
0.000247154
0.000247212
0.000247229
0.000247202
0.000247097
0.000246943
0.000246753
0.000246531
0.000246277
0.000245989
0.000245665
0.000245307
0.000244916
0.000244494
0.000244046
0.000243579
0.000243102
0.000242622
0.000242148
0.000241686
0.000241248
0.000240844
0.000240489
0.000240197
0.000239981
0.00023985
0.000239815
0.000239881
0.000240057
0.000240346
0.000240752
0.000241268
0.000241885
0.000242549
0.000243297
0.000244019
0.000244716
0.000245468
0.000246264
0.000248984
0.00025413
0.000268019
0.00028962
0.000304027
0.000305208
0.00037615
0.000337105
0.000282487
0.000261915
0.000253584
0.000246958
0.000242407
0.000237334
0.000231876
0.000225738
0.000126948
0.000175322
0.000197403
0.000207174
0.00021228
0.00021532
0.000217252
0.000218514
0.00021939
0.000220085
0.000220721
0.000221357
0.000222021
0.000222726
0.000223467
0.000224217
0.000224973
0.000225734
0.000226501
0.000227271
0.000228044
0.000228821
0.000229601
0.000230383
0.00023117
0.000231959
0.000232751
0.000233546
0.000234343
0.000235141
0.000235939
0.000236736
0.000237529
0.000238318
0.000239101
0.000239874
0.000240636
0.000241382
0.00024211
0.000242816
0.000243498
0.000244152
0.000244775
0.000245367
0.000245924
0.000246446
0.000246925
0.000247358
0.000247746
0.000248088
0.000248383
0.000248633
0.000248837
0.00024901
0.00024914
0.000249227
0.000249269
0.000249267
0.000249204
0.000249061
0.000248868
0.000248641
0.000248383
0.000248096
0.000247778
0.000247428
0.000247047
0.000246637
0.000246198
0.000245735
0.000245252
0.000244756
0.000244252
0.000243751
0.000243259
0.000242787
0.000242344
0.000241942
0.000241595
0.000241316
0.000241117
0.000241009
0.000241002
0.000241102
0.000241319
0.000241658
0.000242117
0.000242691
0.000243325
0.000244035
0.000244705
0.000245375
0.00024608
0.000246959
0.000249714
0.000254867
0.000267955
0.000288132
0.00030216
0.000303346
0.000392059
0.000354501
0.000288937
0.000262624
0.000253921
0.000246292
0.000241671
0.000236389
0.000231281
0.000225773
0.000126877
0.000175597
0.00019776
0.000207593
0.000212745
0.000215841
0.000217805
0.000219066
0.00021994
0.000220645
0.0002213
0.000221962
0.000222657
0.000223396
0.000224171
0.000224954
0.000225742
0.000226536
0.000227335
0.000228139
0.000228946
0.000229758
0.000230574
0.000231395
0.000232221
0.000233053
0.000233889
0.000234731
0.000235577
0.000236426
0.000237277
0.00023813
0.000238982
0.000239831
0.000240675
0.000241511
0.000242335
0.000243142
0.000243929
0.000244691
0.000245425
0.000246127
0.000246794
0.000247424
0.000248015
0.000248566
0.000249074
0.000249539
0.00024996
0.000250329
0.000250645
0.000250907
0.000251125
0.000251302
0.000251429
0.000251507
0.000251537
0.000251518
0.00025141
0.000251221
0.000250982
0.000250709
0.000250404
0.000250068
0.000249702
0.000249305
0.00024888
0.00024843
0.000247956
0.000247464
0.000246956
0.000246436
0.000245909
0.000245381
0.00024486
0.000244354
0.000243873
0.000243427
0.000243029
0.00024269
0.000242425
0.000242245
0.000242162
0.000242186
0.000242326
0.000242591
0.000242985
0.00024351
0.000244116
0.000244805
0.000245451
0.000246163
0.000246902
0.000247955
0.000250742
0.000255875
0.000268046
0.00028631
0.000298715
0.000299976
0.000409813
0.000373446
0.000293238
0.000263892
0.000254556
0.000246339
0.000241647
0.000236041
0.000231073
0.000225848
0.000126784
0.000175908
0.000198162
0.000208054
0.000213263
0.000216418
0.000218401
0.000219654
0.000220528
0.000221246
0.000221925
0.000222616
0.000223345
0.000224122
0.000224933
0.000225751
0.000226574
0.000227402
0.000228235
0.000229073
0.000229916
0.000230765
0.000231619
0.000232481
0.00023335
0.000234227
0.000235112
0.000236004
0.000236904
0.00023781
0.000238722
0.000239638
0.000240557
0.000241477
0.000242392
0.0002433
0.000244196
0.000245074
0.00024593
0.000246758
0.000247554
0.000248313
0.000249031
0.000249705
0.000250334
0.000250914
0.000251447
0.00025193
0.000252364
0.000252749
0.000253085
0.000253372
0.000253619
0.000253807
0.000253939
0.000254017
0.000254039
0.000254005
0.000253847
0.00025361
0.000253321
0.000252994
0.000252632
0.000252235
0.000251805
0.000251345
0.000250856
0.000250344
0.000249814
0.00024927
0.000248717
0.000248158
0.000247597
0.000247037
0.000246482
0.000245941
0.000245422
0.000244933
0.000244485
0.000244091
0.000243763
0.000243514
0.000243357
0.000243304
0.000243365
0.000243552
0.000243872
0.000244334
0.0002449
0.000245583
0.000246236
0.000247049
0.000247898
0.000249177
0.000251987
0.000257088
0.00026825
0.000284485
0.000294943
0.000296193
0.000430612
0.000390798
0.000297236
0.00026709
0.000256075
0.000247495
0.000242403
0.000236437
0.000231406
0.000226152
0.000126669
0.000176259
0.000198617
0.000208565
0.000213846
0.000217061
0.000219046
0.000220285
0.000221159
0.000221894
0.000222598
0.000223322
0.000224088
0.000224906
0.000225756
0.00022661
0.000227468
0.000228331
0.0002292
0.000230073
0.000230953
0.000231839
0.000232734
0.000233638
0.000234553
0.000235478
0.000236415
0.000237363
0.000238322
0.000239293
0.000240274
0.000241265
0.000242263
0.000243264
0.000244265
0.00024526
0.000246245
0.000247213
0.000248159
0.000249075
0.000249952
0.000250783
0.000251563
0.000252286
0.000252953
0.000253561
0.000254112
0.000254606
0.000255045
0.00025543
0.00025576
0.000256049
0.000256295
0.000256491
0.000256638
0.000256733
0.000256762
0.000256714
0.000256529
0.000256257
0.000255921
0.000255536
0.000255106
0.000254635
0.000254126
0.000253583
0.000253012
0.000252419
0.00025181
0.000251192
0.000250571
0.000249951
0.000249337
0.000248731
0.000248133
0.000247549
0.000246985
0.00024645
0.000245953
0.000245505
0.000245117
0.000244803
0.000244575
0.000244446
0.000244429
0.000244535
0.000244775
0.000245163
0.000245673
0.000246348
0.000247024
0.00024798
0.000248991
0.000250525
0.000253366
0.000258479
0.000268667
0.000283025
0.000291784
0.000293035
0.000454011
0.00041092
0.000305318
0.000272088
0.000258972
0.000249891
0.00024386
0.000237467
0.000232175
0.000226692
0.000126531
0.000176653
0.000199136
0.000209144
0.000214508
0.000217774
0.000219743
0.000220963
0.00022184
0.000222593
0.000223325
0.000224084
0.000224891
0.000225753
0.000226641
0.000227532
0.000228426
0.000229324
0.000230226
0.000231135
0.000232051
0.000232977
0.000233913
0.000234861
0.000235823
0.0002368
0.000237793
0.000238803
0.00023983
0.000240876
0.000241938
0.000243018
0.00024411
0.000245213
0.000246322
0.000247436
0.000248554
0.000249672
0.00025078
0.000251859
0.000252885
0.000253837
0.000254699
0.000255468
0.000256147
0.000256744
0.000257267
0.000257725
0.000258125
0.000258473
0.000258772
0.000259045
0.000259268
0.000259441
0.000259563
0.000259633
0.000259651
0.000259624
0.000259467
0.000259189
0.000258818
0.000258375
0.000257871
0.000257312
0.000256706
0.00025606
0.000255384
0.000254686
0.000253975
0.00025326
0.000252548
0.000251845
0.000251156
0.000250482
0.000249824
0.000249184
0.000248567
0.000247978
0.000247427
0.000246922
0.000246474
0.000246096
0.000245799
0.000245597
0.000245503
0.000245527
0.000245684
0.00024599
0.000246436
0.00024709
0.000247796
0.000248884
0.000250081
0.00025189
0.000254796
0.00026003
0.000269287
0.000281937
0.000289795
0.00029106
0.000472854
0.000431557
0.000319786
0.000281205
0.000263489
0.000252944
0.000245656
0.000238745
0.000233103
0.000227358
0.000126368
0.000177088
0.000199727
0.000209814
0.00021526
0.000218558
0.000220494
0.000221693
0.000222573
0.000223346
0.000224109
0.000224906
0.000225755
0.000226665
0.00022759
0.000228516
0.000229443
0.000230374
0.00023131
0.000232253
0.000233204
0.000234168
0.000235146
0.00023614
0.000237152
0.000238185
0.000239241
0.000240321
0.000241428