/*--------------------------------*- C++ -*----------------------------------*\
| =========                 |                                                 |
| \\      /  F ield         | OpenFOAM: The Open Source CFD Toolbox           |
|  \\    /   O peration     | Version:  v2106                                 |
|   \\  /    A nd           | Website:  www.openfoam.com                      |
|    \\/     M anipulation  |                                                 |
\*---------------------------------------------------------------------------*/
FoamFile
{
    version     2.0;
    format      ascii;
    arch        "LSB;label=32;scalar=64";
    class       volScalarField;
    location    "1.8";
    object      nut;
}
// * * * * * * * * * * * * * * * * * * * * * * * * * * * * * * * * * * * * * //

dimensions      [0 2 -1 0 0 0 0];

internalField   nonuniform List<scalar> 
29678
(
6.51472e-06
0.000113745
0.000305168
0.000557343
0.000765289
0.000615797
0.000503699
0.000422943
0.000360123
0.000308752
0.000265409
0.000228024
0.000195199
0.000165909
0.00013937
0.000114987
9.24413e-05
7.1532e-05
5.20908e-05
3.44061e-05
1.59902e-05
1.58413e-05
3.27245e-05
5.30178e-05
7.46064e-05
9.55922e-05
0.000119243
0.000143186
0.000166684
0.000188181
0.000213436
0.000243122
0.000272398
0.000304376
0.000338162
0.000374782
0.000416535
0.000494993
0.00063617
0.000854736
0.00110565
0.00109141
0.000815199
0.000619647
0.000462443
0.000364623
0.000316433
0.000281886
0.000246608
0.000217081
0.000194844
0.000175247
0.000157698
0.000143271
0.000131197
0.000120922
0.00011041
9.41688e-05
7.24294e-05
1.02332e-05
1.16027e-05
0.000189526
0.000190294
0.00014961
0.00012494
0.000104764
0.000171215
0.000623288
0.000375715
0.000194336
0.00017985
0.000446675
0.000309533
0.000199136
0.000170852
0.000156972
0.000149063
0.000208506
0.000250204
1.97623e-05
2.39853e-05
0.000199781
0.000214685
0.000144424
9.97775e-05
8.62493e-05
2.42985e-05
0.000211856
0.000214119
0.000720747
0.000340408
0.000434385
3.46121e-05
4.28255e-05
4.58498e-05
6.81699e-05
0.000100126
4.21473e-05
3.1373e-05
4.30282e-05
6.89497e-05
5.9231e-05
7.08978e-05
5.69479e-05
6.65476e-05
5.56609e-05
5.62305e-05
4.83057e-05
5.60474e-05
5.74951e-05
6.49594e-06
0.000113331
0.000304411
0.00055467
0.000535213
0.000439224
0.000366128
0.000310214
0.000265494
0.00022862
0.000197438
0.000170582
0.00014714
0.000126459
0.000108159
9.21132e-05
7.83641e-05
6.669e-05
5.57461e-05
4.28849e-05
2.86482e-05
2.59616e-05
3.78648e-05
5.69194e-05
7.66781e-05
9.5196e-05
0.000115514
0.000135306
0.000155359
0.000174036
0.000195929
0.000219678
0.000242972
0.000267716
0.000292727
0.000319603
0.00034878
0.000396654
0.000462903
0.00052402
0.000556236
0.000524005
0.000447835
0.000374142
0.000309193
0.000262613
0.000232668
0.000208762
0.000186937
0.000168684
0.00015379
0.000140585
0.000129105
0.000119548
0.000111695
0.000105812
0.000102712
0.000105922
0.000108898
8.36123e-05
0.000170952
0.000453642
0.000197719
0.000136214
0.000111817
0.000118711
0.000222336
0.000475947
0.000315442
0.000148697
0.000169811
0.000347315
0.000249538
0.000151134
0.000127237
0.000118216
0.000124557
0.000184848
0.000226189
0.000485228
0.00078558
0.000173653
0.000176118
0.000132928
8.94326e-05
9.18659e-05
0.00034873
0.000193224
0.000189808
0.000493674
0.00025307
0.000235236
0.000486952
0.000184667
0.000124096
8.98364e-05
9.37087e-05
0.000101526
2.73804e-05
4.57536e-05
0.000106492
4.43869e-05
5.74733e-05
4.18116e-05
4.31966e-05
3.3001e-05
3.05845e-05
2.87548e-05
3.52223e-05
3.36344e-05
6.46626e-06
0.000112937
0.00030366
0.000552822
0.000478606
0.000403236
0.000342846
0.000294217
0.000254445
0.000221151
0.000192682
0.000167971
0.000146292
0.000127093
0.000109976
9.45777e-05
8.0443e-05
6.72021e-05
5.54003e-05
4.67528e-05
4.4012e-05
4.87501e-05
5.51539e-05
6.40978e-05
7.53319e-05
8.78607e-05
0.000101919
0.000117237
0.000133527
0.000150685
0.000169427
0.000190193
0.00021274
0.000237389
0.000264337
0.000294253
0.000328384
0.00036966
0.000414328
0.000449023
0.000462881
0.000448102
0.00040692
0.000358061
0.00031182
0.000273578
0.00024513
0.000223019
0.000203842
0.000187048
0.000172794
0.000160458
0.00014957
0.000140162
0.000132209
0.000125627
0.000120165
0.00011477
0.000116906
0.00018331
0.000920431
0.000497076
0.000299235
0.00023208
0.000198118
0.000179332
0.000218218
0.000324099
0.000280668
0.00022344
0.000215423
0.000240121
0.00021725
0.000187728
0.000174182
0.000169374
0.000170906
0.000194811
0.000219821
0.000281499
0.000254541
0.000190801
0.000175645
0.000154812
0.000146223
0.000138952
0.000212437
0.000217984
0.000219966
0.000300413
0.000297929
0.000282513
0.000341935
0.00022863
0.000153559
0.000102151
0.000107189
0.000109011
9.399e-05
7.8912e-05
8.81118e-05
4.85848e-05
5.60033e-05
4.53382e-05
4.40387e-05
3.49114e-05
3.1657e-05
3.22428e-05
3.74198e-05
3.46454e-05
6.42486e-06
0.0001126
0.000302943
0.000497318
0.000437631
0.000380407
0.000330476
0.000287585
0.00025127
0.000220224
0.000193328
0.000169796
0.000149072
0.00013072
0.000114429
9.99797e-05
8.72554e-05
7.63322e-05
6.72714e-05
5.93527e-05
5.19708e-05
4.82177e-05
5.2634e-05
6.11238e-05
7.1702e-05
8.33262e-05
9.60068e-05
0.000109436
0.00012369
0.000138735
0.000154979
0.000172532
0.000191337
0.000211565
0.000233381
0.00025709
0.000282995
0.000311107
0.000338771
0.000360714
0.000372374
0.000369131
0.000349174
0.00031867
0.000285778
0.000256115
0.0002318
0.000211737
0.000194454
0.000179555
0.000166936
0.000156277
0.000147415
0.000140479
0.000135784
0.000134015
0.000136705
0.000148902
0.000183487
0.000261656
0.000494236
0.000570712
0.000316113
0.000226209
0.000193165
0.000191205
0.00022541
0.000255875
0.000237275
0.000206397
0.000202864
0.000211314
0.000196411
0.000176457
0.000165489
0.000163023
0.00017016
0.000191812
0.000210287
0.000239311
0.000227817
0.000187312
0.000172692
0.000154696
0.000145504
0.000150323
0.000210921
0.000201012
0.000209606
0.000237797
0.000234901
0.000233376
0.000250466
0.000211575
0.000173588
0.000134087
0.000172435
0.000184522
9.57196e-05
5.99523e-05
8.19932e-05
6.66629e-05
5.87076e-05
4.95574e-05
4.6001e-05
3.82484e-05
3.36715e-05
3.22459e-05
3.43595e-05
3.00716e-05
6.37267e-06
0.000112324
0.000302199
0.000442704
0.000401029
0.00035749
0.000316678
0.000279511
0.00024689
0.00021836
0.000193284
0.000171148
0.000151562
0.000134206
0.000118841
0.000105312
9.35296e-05
8.34765e-05
7.51986e-05
6.90508e-05
6.60015e-05
6.7177e-05
7.24667e-05
7.99538e-05
8.86949e-05
9.83548e-05
0.000108961
0.000120472
0.00013285
0.000146057
0.000160171
0.000175205
0.000191121
0.00020792
0.000225587
0.000244059
0.00026305
0.0002817
0.000298073
0.000309662
0.00031449
0.000310889
0.00029827
0.000278976
0.000257032
0.000235891
0.00021731
0.000201372
0.000187627
0.000175865
0.000166015
0.000157972
0.000151712
0.000147391
0.000145361
0.000146267
0.000151293
0.000162512
0.000183908
0.00022909
0.000306013
0.000334665
0.000289243
0.000248062
0.000226007
0.000219634
0.000227788
0.000236817
0.000233371
0.000223299
0.000217463
0.000214538
0.000207338
0.000198508
0.00019235
0.000190219
0.000193004
0.000201217
0.000210249
0.000216726
0.000210466
0.000196831
0.000188543
0.000181952
0.000179784
0.000184889
0.000202785
0.000207461
0.000212528
0.000220982
0.000220868
0.00021491
0.000203144
0.000181911
0.000146429
0.000123634
0.000173437
0.000232483
0.000217759
5.70975e-05
8.11391e-05
6.80303e-05
5.71453e-05
5.00888e-05
4.63856e-05
4.02112e-05
3.58028e-05
3.44545e-05
3.60773e-05
3.0913e-05
6.31108e-06
0.000112111
0.000301519
0.000399224
0.000369485
0.000336112
0.000302921
0.00027108
0.000242114
0.000216162
0.000192985
0.000172314
0.000153917
0.000137582
0.000123138
0.000110476
9.95302e-05
9.02783e-05
8.27379e-05
7.6974e-05
7.31857e-05
7.17334e-05
7.32254e-05
7.71865e-05
8.29542e-05
9.00474e-05
9.82133e-05
0.000107283
0.000117173
0.000127828
0.000139223
0.000151348
0.000164169
0.000177648
0.000191704
0.000206157
0.000220626
0.000234393
0.000246328
0.000255099
0.000259558
0.000258864
0.00025274
0.00024207
0.000228731
0.000214735
0.000201484
0.000189537
0.000178986
0.000169856
0.000162193
0.000156029
0.000151436
0.000148591
0.000147825
0.000149705
0.000155233
0.000166183
0.000185646
0.000217471
0.0002534
0.000266074
0.000250575
0.000228082
0.000212717
0.000206972
0.000208869
0.000210658
0.000207123
0.000200868
0.000196361
0.000192928
0.000187595
0.000181559
0.000177207
0.000175811
0.000178053
0.00018377
0.000189786
0.000194009
0.000192388
0.000185499
0.000179308
0.000173973
0.00017236
0.000176695
0.000188722
0.000195073
0.000200072
0.000205464
0.000207973
0.000208291
0.000202486
0.000202791
0.000169795
0.000159487
0.000191291
0.000223105
0.000333583
5.6738e-05
7.43376e-05
6.79429e-05
5.67862e-05
4.962e-05
4.66459e-05
4.21272e-05
3.82961e-05
3.66334e-05
3.73124e-05
3.12154e-05
6.24156e-06
0.000111963
0.000300968
0.000365508
0.000343538
0.000317504
0.000290327
0.00026311
0.000237508
0.000213998
0.000192643
0.000173384
0.000156126
0.000140758
0.000127167
0.000115283
0.000105061
9.64841e-05
8.95767e-05
8.44258e-05
8.12406e-05
8.03901e-05
8.2016e-05
8.56744e-05
9.08512e-05
9.71733e-05
0.000104397
0.000112365
0.000120983
0.000130177
0.000139885
0.000150054
0.000160612
0.000171458
0.000182438
0.000193304
0.000203668
0.000212978
0.000220557
0.000225726
0.000227958
0.000226941
0.000222658
0.000215567
0.000206596
0.000196849
0.000187241
0.000178307
0.00017029
0.000163324
0.000157517
0.000152971
0.000149808
0.000148221
0.000148509
0.000151125
0.000156725
0.00016616
0.000180156
0.000198159
0.000215134
0.000223752
0.000221788
0.000214677
0.000208374
0.000205173
0.000204749
0.000204671
0.000203057
0.000200343
0.000197728
0.000195277
0.000192408
0.000189422
0.000187145
0.000186267
0.000187193
0.000189688
0.000192394
0.000193895
0.000192988
0.000190225
0.000187745
0.000186215
0.000186497
0.00018918
0.000193873
0.000197077
0.000199384
0.000200975
0.00020028
0.00019794
0.000183663
0.000186953
0.000152792
0.000157126
0.000183047
0.00024066
0.000352182
5.91849e-05
6.87373e-05
6.60542e-05
5.61145e-05
4.78453e-05
4.61662e-05
4.34313e-05
4.09421e-05
3.9738e-05
4.01406e-05
3.31191e-05
6.1656e-06
0.000111882
0.000300583
0.000339668
0.000322863
0.000302068
0.000279458
0.000256033
0.000233341
0.000212009
0.0001923
0.000174322
0.000158098
0.000143602
0.000130774
0.00011957
0.000109959
0.000101925
9.54785e-05
9.06681e-05
8.75852e-05
8.63349e-05
8.69148e-05
8.91125e-05
9.26216e-05
9.71739e-05
0.000102572
0.000108674
0.00011538
0.000122618
0.000130307
0.000138368
0.000146722
0.000155261
0.000163833
0.000172221
0.000180127
0.000187173
0.000192938
0.000197018
0.000199096
0.000198993
0.000196708
0.000192485
0.000186825
0.000180372
0.000173737
0.000167369
0.000161555
0.000156484
0.000152304
0.000149148
0.000147156
0.000146502
0.000147412
0.000150172
0.000155113
0.000162529
0.000172463
0.000184128
0.000194939
0.000201627
0.000202613
0.000200281
0.000197301
0.000195304
0.000194472
0.000193867
0.000192633
0.000190813
0.000188865
0.000186888
0.000184733
0.000182597
0.000180967
0.000180303
0.00018083
0.000182328
0.000184013
0.000185094
0.000185014
0.000183934
0.000182726
0.000182031
0.000182564
0.000184715
0.000188175
0.00019137
0.000193988
0.000195975
0.000197016
0.000199282
0.000185756
0.00020319
0.000160626
0.00018176
0.000170966
0.000242956
0.000354249
6.1768e-05
6.52944e-05
6.60791e-05
5.5101e-05
4.63583e-05
4.63224e-05
4.54237e-05
4.44395e-05
4.37251e-05
4.38003e-05
3.56452e-05
6.0847e-06
0.000111872
0.000300381
0.00032011
0.000306813
0.000289755
0.000270544
0.000250095
0.000229778
0.000210265
0.000191952
0.000175075
0.000159752
0.000146023
0.000133862
0.000123243
0.000114138
0.000106524
0.000100393
9.57567e-05
9.26407e-05
9.10601e-05
9.09715e-05
9.22361e-05
9.46617e-05
9.80513e-05
0.000102233
0.00010707
0.000112452
0.000118292
0.00012451
0.000131002
0.000137677
0.000144423
0.000151097
0.000157519
0.000163466
0.000168684
0.000172913
0.000175919
0.000177529
0.000177657
0.000176325
0.000173686
0.000170033
0.000165748
0.000161226
0.000156799
0.000152719
0.000149173
0.000146312
0.00014427
0.000143178
0.000143177
0.000144425
0.000147088
0.000151316
0.000157168
0.000164479
0.000172374
0.000179726
0.000184898
0.000187154
0.000187413
0.000186828
0.000186252
0.000185926
0.000185587
0.000184944
0.000184001
0.000182925
0.000181794
0.000180622
0.000179539
0.000178787
0.000178605
0.000179098
0.000180132
0.000181325
0.000182293
0.000182814
0.000182968
0.000183113
0.000183596
0.000184734
0.000186652
0.000189151
0.000191674
0.000193933
0.000195383
0.00019558
0.000198626
0.000182472
0.000205735
0.000161992
0.0002022
0.000165073
0.000256736
0.000360385
6.58934e-05
6.5067e-05
6.68297e-05
5.48301e-05
4.65814e-05
4.82042e-05
4.87871e-05
4.90714e-05
4.88779e-05
4.87359e-05
3.91215e-05
6.00029e-06
0.000111932
0.000300369
0.000305618
0.000294741
0.000280352
0.000263629
0.00024541
0.000226898
0.000208789
0.000191581
0.000175608
0.000161051
0.000147984
0.0001364
0.000126272
0.000117569
0.00011026
0.000104321
9.97385e-05
9.64983e-05
9.45737e-05
9.39042e-05
9.43809e-05
9.58611e-05
9.81945e-05
0.000101241
0.000104879
0.000109008
0.000113538
0.000118391
0.00012348
0.000128699
0.000133945
0.000139101
0.000144024
0.000148555
0.000152522
0.00015576
0.000158124
0.000159513
0.000159882
0.00015925
0.00015772
0.00015547
0.00015274
0.000149789
0.000146859
0.000144152
0.000141834
0.000140043
0.000138904
0.000138528
0.000139027
0.000140507
0.000143061
0.000146739
0.00015157
0.000157125
0.000163026
0.000168637
0.000172878
0.000175535
0.000176931
0.000177571
0.000177901
0.00017812
0.000178202
0.000178071
0.000177736
0.00017728
0.000176772
0.000176264
0.000175845
0.000175646
0.000175793
0.000176334
0.000177191
0.000178176
0.000179109
0.000179901
0.00018059
0.000181331
0.000182307
0.000183696
0.000185576
0.000187856
0.00019028
0.00019275
0.00019458
0.000195284
0.000201063
0.000184407
0.000215948
0.000167762
0.000228158
0.000164132
0.000283834
0.000369275
7.23469e-05
6.74166e-05
6.89737e-05
5.77157e-05
4.97427e-05
5.27141e-05
5.41842e-05
5.52697e-05
5.54443e-05
5.50859e-05
4.35639e-05
5.91374e-06
0.000112066
0.000294796
0.00029532
0.000286125
0.000273625
0.000258663
0.000241987
0.000224701
0.000207565
0.000191177
0.000175926
0.00016201
0.000149502
0.000138395
0.000128654
0.000120247
0.000113137
0.000107293
0.000102682
9.92674e-05
9.70019e-05
9.58176e-05
9.56207e-05
9.6298e-05
9.77302e-05
9.98023e-05
0.00010241
0.00010546
0.000108871
0.000112563
0.000116463
0.000120484
0.00012452
0.000128477
0.000132245
0.00013571
0.000138754
0.00014127
0.000143167
0.000144385
0.000144899
0.000144728
0.000143942
0.000142657
0.000141027
0.000139227
0.000137428
0.000135787
0.00013444
0.000133504
0.000133083
0.00013327
0.00013415
0.000135791
0.000138236
0.000141549
0.000145505
0.000149958
0.000154747
0.00015933
0.00016288
0.0001656
0.000167532
0.000168886
0.000169884
0.000170656
0.000171233
0.00017161
0.000171808
0.000171885
0.000171903
0.000171921
0.000172007
0.000172241
0.000172688
0.000173369
0.00017424
0.000175219
0.000176233
0.000177256
0.000178313
0.000179475
0.000180833
0.000182489
0.000184504
0.000186873
0.000189421
0.00019238
0.000194792
0.000196126
0.000204505
0.000188014
0.000226822
0.000176523
0.000258231
0.000168523
0.000325199
0.000370295
8.30195e-05
7.18374e-05
7.20868e-05
6.49514e-05
5.54363e-05
5.97352e-05
6.15797e-05
6.32103e-05
6.37177e-05
6.31905e-05
4.90999e-05
5.82634e-06
0.000112274
0.000287307
0.000288623
0.000280595
0.000269381
0.000255548
0.000239752
0.000223128
0.000206578
0.000190768
0.000176079
0.000162675
0.000150604
0.000139855
0.000130391
0.00012218
0.000115184
0.000109363
0.000104671
0.000101057
9.84641e-05
9.68209e-05
9.60432e-05
9.6036e-05
9.67007e-05
9.79412e-05
9.96672e-05
0.000101796
0.000104253
0.000106966
0.000109865
0.000112882
0.000115939
0.000118943
0.000121811
0.00012446
0.00012681
0.000128787
0.000130336
0.000131417
0.000132019
0.00013216
0.000131886
0.000131278
0.000130437
0.000129484
0.00012854
0.000127724
0.00012714
0.000126886
0.000127044
0.000127688
0.000128881
0.000130672
0.0001331
0.000136094
0.000139524
0.00014345
0.000147553
0.000151369
0.000154547
0.000157232
0.000159419
0.000161185
0.000162635
0.000163849
0.000164861
0.000165685
0.000166341
0.000166868
0.00016732
0.000167754
0.000168233
0.000168812
0.000169529
0.000170395
0.000171388
0.000172474
0.000173633
0.000174864
0.000176186
0.000177635
0.000179265
0.000181143
0.000183331
0.000185894
0.000188651
0.000192183
0.000195283
0.000197478
0.000208233
0.000192651
0.000237377
0.000186926
0.000285747
0.000176385
0.000314709
0.000384758
9.96009e-05
7.91438e-05
7.64096e-05
7.67088e-05
6.30156e-05
6.89464e-05
7.08885e-05
7.30845e-05
7.40688e-05
7.34991e-05
5.59043e-05
5.73925e-06
0.00011256
0.000283349
0.000285169
0.000277912
0.000267473
0.000254144
0.000238572
0.000222116
0.000205848
0.000190419
0.000176125
0.000163073
0.000151295
0.00014078
0.000131492
0.000123396
0.000116449
0.0001106
0.000105794
0.000101973
9.90709e-05
9.70184e-05
9.57374e-05
9.51449e-05
9.51565e-05
9.56898e-05
9.66666e-05
9.80144e-05
9.96656e-05
0.000101557
0.000103626
0.000105813
0.000108057
0.000110295
0.000112458
0.000114474
0.000116291
0.000117857
0.000119136
0.000120104
0.000120756
0.000121107
0.000121191
0.000121063
0.000120796
0.000120471
0.000120177
0.00012
0.000120022
0.000120315
0.000120947
0.000121973
0.000123436
0.000125373
0.000127827
0.000130602
0.000133843
0.000137411
0.000141113
0.000144353
0.000147257
0.000149878
0.000152186
0.0001542
0.000155966
0.000157526
0.000158907
0.000160123
0.000161189
0.000162125
0.000162969
0.000163767
0.000164574
0.000165438
0.000166393
0.000167449
0.000168597
0.000169828
0.00017114
0.000172541
0.000174046
0.000175681
0.000177487
0.000179521
0.000181853
0.000184605
0.000187572
0.000191628
0.000195447
0.000198701
0.000211472
0.000197519
0.000246471
0.000197556
0.00030863
0.000186968
0.000262774
0.000386671
0.000128387
9.15567e-05
8.29186e-05
9.34068e-05
7.24302e-05
8.02055e-05
8.22107e-05
8.5048e-05
8.69913e-05
8.66626e-05
6.42341e-05
5.65353e-06
0.000112927
0.000282757
0.000284819
0.000277981
0.000267787
0.000254275
0.000238313
0.000221641
0.000205421
0.00019017
0.000176072
0.000163196
0.00015157
0.000141181
0.000131987
0.000123941
0.000116992
0.000111079
0.000106141
0.000102112
9.89244e-05
9.65089e-05
9.47922e-05
9.36997e-05
9.3157e-05
9.30923e-05
9.34372e-05
9.41279e-05
9.51049e-05
9.63122e-05
9.76965e-05
9.92062e-05
0.000100791
0.0001024
0.000103987
0.000105504
0.000106906
0.000108151
0.000109216
0.000110086
0.000110762
0.000111255
0.000111592
0.000111813
0.000111968
0.000112118
0.000112325
0.000112652
0.000113161
0.000113907
0.00011494
0.000116299
0.000118014
0.000120161
0.000122572
0.000125373
0.000128529
0.000131898
0.000135402
0.000138131
0.000140833
0.000143385
0.000145747
0.000147913
0.000149896
0.000151718
0.000153394
0.000154936
0.000156351
0.00015765
0.000158848
0.000159977
0.000161077
0.000162191
0.000163354
0.000164584
0.000165887
0.000167263
0.000168717
0.000170256
0.000171893
0.00017365
0.000175564
0.000177692
0.000180108
0.000182975
0.00018607
0.000190483
0.000194857
0.000199118
0.000213314
0.000201624
0.000252582
0.000206627
0.000323739
0.000199327
0.00022666
0.000384408
0.00017284
0.000109321
9.34409e-05
0.000113522
8.36937e-05
9.28424e-05
9.57076e-05
9.9151e-05
0.000103056
0.000103585
7.44513e-05
5.57011e-06
0.000113372
0.000285557
0.000287641
0.000280833
0.000270218
0.000255767
0.000238886
0.000221712
0.000205313
0.000190003
0.000175888
0.000163026
0.000151433
0.000141082
0.000131912
0.000123864
0.000116874
0.000110873
0.000105794
0.000101566
9.8119e-05
9.53844e-05
9.32925e-05
9.17746e-05
9.07639e-05
9.01965e-05
9.00122e-05
9.01548e-05
9.05717e-05
9.12143e-05
9.20366e-05
9.29948e-05
9.40474e-05
9.51543e-05
9.6278e-05
9.73838e-05
9.84415e-05
9.94264e-05
0.000100319
0.000101104
0.000101787
0.000102377
0.000102897
0.000103377
0.000103855
0.000104374
0.000104979
0.000105717
0.000106631
0.000107763
0.000109147
0.000110816
0.000112813
0.000115068
0.000117598
0.000120493
0.00012362
0.000126939
0.00013
0.000132564
0.000135112
0.000137597
0.000139978
0.000142239
0.000144375
0.000146395
0.000148304
0.00015011
0.000151817
0.000153427
0.000154943
0.000156378
0.000157755
0.000159104
0.000160461
0.00016185
0.000163291
0.000164794
0.000166367
0.000168013
0.000169743
0.000171572
0.000173538
0.000175696
0.00017812
0.000180995
0.000184089
0.000188611
0.000193186
0.000198111
0.00021297
0.000204224
0.000255255
0.000213611
0.000335172
0.000214799
0.000215274
0.000341092
0.000209086
0.000134908
0.000108512
0.000131151
9.61437e-05
0.000105564
0.000111773
0.000115615
0.000123194
0.00012542
8.7087e-05
5.48981e-06
0.000113891
0.000291996
0.0002939
0.000286583
0.000274668
0.000258482
0.000240248
0.000222316
0.000205472
0.000189853
0.000175532
0.00016255
0.000150892
0.000140504
0.000131301
0.00012321
0.000116152
0.000110052
0.000104832
0.000100419
9.67409e-05
9.37293e-05
9.13171e-05
8.94401e-05
8.80371e-05
8.70505e-05
8.64265e-05
8.61153e-05
8.60708e-05
8.62505e-05
8.66148e-05
8.71266e-05
8.77514e-05
8.84565e-05
8.92122e-05
8.99914e-05
9.07717e-05
9.15355e-05
9.22722e-05
9.29783e-05
9.36574e-05
9.4317e-05
9.49762e-05
9.56596e-05
9.63957e-05
9.7216e-05
9.8153e-05
9.92392e-05
0.000100505
0.000101978
0.000103681
0.000105639
0.000107893
0.000110294
0.000113025
0.000115996
0.000119173
0.000122515
0.000125128
0.000127512
0.00012994
0.000132368
0.000134759
0.000137088
0.000139341
0.000141517
0.000143616
0.000145639
0.000147587
0.000149459
0.000151253
0.000152967
0.000154607
0.000156188
0.000157736
0.000159279
0.000160842
0.000162447
0.000164107
0.000165827
0.00016761
0.00016947
0.000171437
0.000173563
0.000175918
0.00017869
0.000181652
0.000186018
0.000190441
0.00019561
0.000210271
0.000204878
0.00025392
0.000218213
0.00034708
0.000236279
0.000225528
0.000300421
0.000212265
0.000170132
0.000127505
0.000140446
0.000108391
0.000117175
0.000131619
0.000135002
0.000149405
0.000154176
0.000102959
5.41341e-06
0.00011448
0.000302544
0.000304045
0.000295404
0.000281042
0.000262328
0.000242354
0.000223376
0.000205793
0.000189639
0.000174958
0.000161747
0.000149943
0.000139459
0.000130183
0.000122022
0.000114882
0.000108678
0.000103326
9.87471e-05
9.48683e-05
9.16204e-05
8.89384e-05
8.67615e-05
8.50329e-05
8.36999e-05
8.27141e-05
8.20308e-05
8.16095e-05
8.14129e-05
8.14068e-05
8.15596e-05
8.18423e-05
8.22278e-05
8.26918e-05
8.3213e-05
8.37742e-05
8.43636e-05
8.49756e-05
8.56116e-05
8.62793e-05
8.69924e-05
8.77687e-05
8.86258e-05
8.95853e-05
9.067e-05
9.19018e-05
9.33016e-05
9.48879e-05
9.66765e-05
9.86756e-05
0.000100953
0.000103354
0.000106026
0.000108934
0.000112024
0.000115295
0.000118717
0.000120762
0.000122979
0.000125288
0.000127649
0.000130026
0.000132392
0.000134731
0.000137032
0.00013929
0.000141499
0.000143655
0.000145752
0.000147786
0.000149748
0.000151633
0.000153443
0.000155187
0.000156885
0.000158566
0.000160256
0.000161974
0.00016373
0.000165528
0.000167376
0.000169297
0.000171334
0.000173549
0.000176121
0.00017884
0.000182814
0.000186906
0.000191955
0.000205369
0.000202879
0.000246899
0.000218789
0.000355398
0.000268355
0.000258282
0.000323627
0.000213889
0.000209992
0.000144779
0.00014117
0.000120621
0.000128798
0.000158204
0.000159168
0.000185528
0.000193777
0.000123393
5.34165e-06
0.00011514
0.000306848
0.000318716
0.000307503
0.000289242
0.000267208
0.000245102
0.000224742
0.00020614
0.000189265
0.000174103
0.000160578
0.000148573
0.000137956
0.000128583
0.000120338
0.000113114
0.000106812
0.000101342
9.66206e-05
9.25722e-05
8.91272e-05
8.62222e-05
8.37988e-05
8.18036e-05
8.01878e-05
7.89074e-05
7.79223e-05
7.71963e-05
7.66967e-05
7.63938e-05
7.62606e-05
7.62721e-05
7.64057e-05
7.66411e-05
7.69615e-05
7.73543e-05
7.78124e-05
7.83353e-05
7.8929e-05
7.96052e-05
8.03796e-05
8.12703e-05
8.22956e-05
8.34733e-05
8.48159e-05
8.63351e-05
8.80417e-05
8.9944e-05
9.20489e-05
9.43758e-05
9.68843e-05
9.95495e-05
0.00010248
0.000105572
0.00010883
0.000112237
0.000115168
0.000117066
0.000119105
0.000121271
0.000123529
0.000125848
0.000128201
0.000130572
0.000132949
0.00013532
0.000137677
0.000140009
0.000142304
0.000144551
0.000146735
0.000148845
0.000150872
0.000152813
0.000154673
0.000156475
0.000158243
0.000160001
0.000161765
0.000163541
0.000165335
0.000167164
0.000169058
0.000171068
0.000173351
0.000175735
0.000179151
0.000182764
0.000187264
0.000198291
0.000197388
0.000232949
0.000212607
0.000344542
0.000310483
0.000303572
0.000350926
0.000219668
0.000242826
0.000151344
0.000142628
0.000136165
0.000146056
0.00019668
0.000192434
0.000238314
0.000251713
0.000150463
5.27525e-06
0.000115877
0.000308301
0.00033874
0.000323068
0.000299133
0.000272968
0.000248301
0.000226199
0.00020634
0.000188606
0.000172881
0.000158995
0.00014676
0.000135994
0.000126518
0.000118192
0.000110893
0.000104508
9.89404e-05
9.41027e-05
8.9917e-05
8.63129e-05
8.32282e-05
8.06062e-05
7.83965e-05
7.65534e-05
7.50365e-05
7.38096e-05
7.28403e-05
7.20996e-05
7.15619e-05
7.12036e-05
7.10034e-05
7.09422e-05
7.10036e-05
7.11752e-05
7.1449e-05
7.18229e-05
7.23014e-05
7.28949e-05
7.36183e-05
7.44893e-05
7.5525e-05
7.6741e-05
7.81496e-05
7.97598e-05
8.15771e-05
8.36037e-05
8.58341e-05
8.82623e-05
9.09417e-05
9.36842e-05
9.6682e-05
9.98504e-05
0.000103163
0.000106609
0.00011018
0.000112483
0.000114145
0.000115978
0.000117967
0.000120082
0.000122294
0.00012458
0.000126926
0.00012932
0.00013175
0.000134203
0.000136667
0.000139124
0.000141555
0.000143938
0.000146254
0.000148483
0.000150616
0.000152645
0.000154576
0.000156429
0.000158223
0.000159976
0.000161702
0.000163406
0.000165099
0.0001668
0.000168546
0.000170459
0.000172402
0.00017513
0.000177988
0.000181462
0.000189249
0.000188356
0.000213356
0.000198572
0.000300969
0.00032835
0.00031665
0.000337673
0.000231761
0.000247216
0.000146155
0.000158267
0.000161251
0.000183531
0.0002525
0.000242942
0.000316285
0.000337424
0.000186267
5.21487e-06
0.000116689
0.000309847
0.000365095
0.000342135
0.000310437
0.000279305
0.00025164
0.00022746
0.000206175
0.000187507
0.000171189
0.000156933
0.000144474
0.00013357
0.000124006
0.000115616
0.00010826
0.000101815
9.61763e-05
9.12514e-05
8.69612e-05
8.32345e-05
8.00099e-05
7.72326e-05
7.48543e-05
7.28322e-05
7.11288e-05
6.97113e-05
6.85506e-05
6.76212e-05
6.69007e-05
6.63689e-05
6.6008e-05
6.58031e-05
6.57429e-05
6.58203e-05
6.6033e-05
6.63838e-05
6.68809e-05
6.75374e-05
6.83699e-05
6.93954e-05
7.06287e-05
7.20807e-05
7.37577e-05
7.56618e-05
7.77915e-05
8.01421e-05
8.27072e-05
8.55006e-05
8.8439e-05
9.15685e-05
9.48869e-05
9.83201e-05
0.000101868
0.000105525
0.000109282
0.000110714
0.000112108
0.000113701
0.000115471
0.000117394
0.000119444
0.000121601
0.000123858
0.000126205
0.000128633
0.000131129
0.000133674
0.000136249
0.000138827
0.000141382
0.000143881
0.000146299
0.000148613
0.000150808
0.000152876
0.000154823
0.00015666
0.000158402
0.000160064
0.000161651
0.000163172
0.000164637
0.000166064
0.000167539
0.000168934
0.000170846
0.000172588
0.000174753
0.000178968
0.000176926
0.000191516
0.000179447
0.000240283
0.000276082
0.000275032
0.000321593
0.000239752
0.000238804
0.000138488
0.000184261
0.000210668
0.000286136
0.000344155
0.000329284
0.000425935
0.000462226
0.000233681
5.16115e-06
0.000117564
0.000311451
0.000398671
0.000364222
0.000322496
0.000285641
0.000254608
0.000228137
0.000205371
0.000185783
0.000168908
0.000154326
0.000141685
0.00013068
0.000121062
0.00011264
0.000105258
9.87817e-05
9.31009e-05
8.81201e-05
8.3758e-05
7.99436e-05
7.6616e-05
7.37221e-05
7.12156e-05
6.90562e-05
6.72092e-05
6.56446e-05
6.43365e-05
6.32626e-05
6.24035e-05
6.17431e-05
6.12687e-05
6.09721e-05
6.08498e-05
6.09024e-05
6.11335e-05
6.15487e-05
6.21559e-05
6.29665e-05
6.39937e-05
6.52505e-05
6.67467e-05
6.84875e-05
7.04736e-05
7.27015e-05
7.51639e-05
7.78508e-05
8.075e-05
8.39015e-05
8.71275e-05
9.06107e-05
9.42311e-05
9.79653e-05
0.000101787
0.000105681
0.000109053
0.000109966
0.000111078
0.000112398
0.000113901
0.000115572
0.000117395
0.000119357
0.000121454
0.000123683
0.000126038
0.000128511
0.000131081
0.000133724
0.000136408
0.000139099
0.000141758
0.000144346
0.00014683
0.000149183
0.000151388
0.000153436
0.000155328
0.000157069
0.000158669
0.000160131
0.000161459
0.000162654
0.000163722
0.000164707
0.000165471
0.00016648
0.00016689
0.000167618
0.000168446
0.000164941
0.000170776
0.000159925
0.000186263
0.000204842
0.00022544
0.000302354
0.000226821
0.000232609
0.000140277
0.000185805
0.000335744
0.000643134
0.000553942
0.000473184
0.00056141
0.000624751
0.000297087
5.11475e-06
0.000118484
0.000313089
0.00043942
0.000387781
0.000334077
0.000291045
0.000256482
0.00022774
0.00020361
0.000183233
0.000165919
0.00015111
0.000138367
0.000127326
0.000117706
0.000109296
0.000101925
9.54526e-05
8.97628e-05
8.47581e-05
8.03563e-05
7.64871e-05
7.30902e-05
7.01143e-05
6.75151e-05
6.52546e-05
6.33006e-05
6.1626e-05
6.02078e-05
5.90268e-05
5.80682e-05
5.7322e-05
5.6785e-05
5.6461e-05
5.63591e-05
5.64892e-05
5.68587e-05
5.74691e-05
5.83178e-05
5.94039e-05
6.07301e-05
6.23007e-05
6.41196e-05
6.61882e-05
6.85054e-05
7.10666e-05
7.38642e-05
7.68875e-05
8.01526e-05
8.35505e-05
8.71831e-05
9.09926e-05
9.49095e-05
9.8906e-05
0.000102962
0.000107075
0.000109637
0.000110307
0.000111148
0.000112177
0.000113383
0.000114752
0.000116279
0.000117967
0.00011982
0.000121846
0.000124048
0.000126421
0.000128947
0.0001316
0.000134342
0.000137132
0.00013992
0.000142657
0.000145298
0.000147803
0.000150142
0.000152296
0.000154252
0.000156004
0.000157553
0.000158897
0.00016003
0.000160945
0.000161632
0.000162102
0.000162203
0.000162292
0.00016139
0.000160622
0.000158764
0.000153943
0.000153261
0.000143271
0.000147127
0.000155388
0.000188201
0.00028036
0.000211641
0.000227298
0.000158473
0.00018452
0.000407906
0.000586473
0.000766491
0.000615631
0.000683943
0.000768926
0.000385454
5.07629e-06
0.00011941
0.000314745
0.000484285
0.000409534
0.000343248
0.000294233
0.000256387
0.00022573
0.000200568
0.000179669
0.000162119
0.000147237
0.000134509
0.000123518
0.000113963
0.000105618
9.83024e-05
9.18726e-05
8.6208e-05
8.12116e-05
7.68013e-05
7.29079e-05
6.94724e-05
6.64454e-05
6.37845e-05
6.14543e-05
5.94249e-05