/*--------------------------------*- C++ -*----------------------------------*\
| =========                 |                                                 |
| \\      /  F ield         | OpenFOAM: The Open Source CFD Toolbox           |
|  \\    /   O peration     | Version:  v2106                                 |
|   \\  /    A nd           | Website:  www.openfoam.com                      |
|    \\/     M anipulation  |                                                 |
\*---------------------------------------------------------------------------*/
FoamFile
{
    version     2.0;
    format      ascii;
    arch        "LSB;label=32;scalar=64";
    class       volScalarField;
    location    "1.8";
    object      omega;
}
// * * * * * * * * * * * * * * * * * * * * * * * * * * * * * * * * * * * * * //

dimensions      [0 0 -1 0 0 0 0];

internalField   nonuniform List<scalar> 
29678
(
6.82832
1.52083
0.635239
0.363479
0.254932
0.202803
0.175214
0.160683
0.153397
0.15012
0.149057
0.149246
0.150225
0.151828
0.154041
0.156707
0.159923
0.163952
0.169317
0.177211
0.191137
0.210911
0.225889
0.232715
0.235727
0.237081
0.236783
0.235331
0.233309
0.231073
0.228531
0.225792
0.223116
0.220473
0.217881
0.215344
0.212872
0.2103
0.207609
0.204938
0.202419
0.200178
0.198228
0.196568
0.195254
0.194279
0.193498
0.192953
0.192852
0.19322
0.193967
0.195208
0.197049
0.199415
0.20227
0.205617
0.209544
0.213958
0.219497
0.257768
0.298653
0.299564
0.291816
0.285335
0.280527
0.278789
0.279186
0.374348
0.358602
0.34197
0.337004
0.347466
0.359161
0.367381
0.371954
0.371062
0.361151
0.336344
0.311688
0.374421
0.416838
0.339651
0.311244
0.296433
0.293207
0.29135
0.317146
0.274722
0.26527
0.328893
0.29137
0.290483
0.390522
0.470725
0.526685
0.747666
0.986029
1.57975
1.79069
1.60106
1.24551
1.08943
0.919899
0.821855
0.726406
0.668158
0.58388
0.476537
0.33185
0.216209
6.82821
1.52639
0.637084
0.365463
0.255922
0.202939
0.175336
0.1611
0.154135
0.151196
0.150526
0.1512
0.152793
0.154947
0.157525
0.160566
0.164158
0.168419
0.173547
0.180084
0.189858
0.20393
0.214569
0.220371
0.223262
0.224716
0.225034
0.224399
0.223134
0.221586
0.219672
0.217585
0.215483
0.213354
0.211232
0.209119
0.207021
0.204836
0.202604
0.200459
0.198465
0.196626
0.195001
0.193625
0.192583
0.191899
0.191488
0.191393
0.191761
0.19262
0.193941
0.195828
0.198337
0.201404
0.204746
0.208272
0.212033
0.21582
0.219351
0.223469
0.226407
0.225345
0.224436
0.224338
0.225518
0.225558
0.220527
0.225457
0.22392
0.220715
0.216532
0.216798
0.214763
0.213774
0.214568
0.215132
0.212814
0.207062
0.204155
0.202531
0.212266
0.212149
0.213675
0.219827
0.228692
0.234351
0.22157
0.218869
0.219278
0.224074
0.225347
0.236603
0.252962
0.294248
0.382908
0.571952
0.838987
1.1419
1.61854
1.52322
1.28495
1.15526
0.949948
0.822867
0.673449
0.556412
0.430496
0.324114
0.236966
0.186421
6.82877
1.53195
0.638992
0.366969
0.256593
0.203145
0.175546
0.161364
0.154439
0.151529
0.150881
0.151566
0.153144
0.155249
0.15775
0.160672
0.164107
0.168219
0.173259
0.179432
0.186525
0.193244
0.198869
0.203508
0.207067
0.209721
0.211587
0.212812
0.213198
0.21293
0.212159
0.211007
0.209605
0.208019
0.206303
0.20449
0.2026
0.200633
0.198627
0.196662
0.1948
0.193077
0.191534
0.190218
0.189183
0.188455
0.188001
0.187811
0.18794
0.188432
0.189288
0.190532
0.192202
0.194286
0.196749
0.199554
0.202678
0.205929
0.209152
0.210979
0.210447
0.209553
0.20854
0.207552
0.206727
0.206004
0.204315
0.201676
0.199298
0.196498
0.192904
0.188736
0.184882
0.182052
0.180179
0.179099
0.178645
0.178516
0.179972
0.181953
0.186115
0.19152
0.1971
0.203191
0.207425
0.210882
0.208285
0.20654
0.207341
0.209388
0.212884
0.221352
0.234994
0.263568
0.322193
0.491352
0.765015
1.10261
1.34055
1.34994
1.31629
1.1488
0.950888
0.818837
0.672166
0.545195
0.412945
0.302648
0.226942
0.183745
6.82969
1.537
0.640926
0.368265
0.257086
0.203308
0.175732
0.161562
0.154623
0.151689
0.151005
0.151638
0.153136
0.155161
0.157549
0.160305
0.163474
0.16712
0.1713
0.176071
0.181566
0.187778
0.193689
0.198495
0.202145
0.204836
0.206747
0.208063
0.208798
0.208786
0.208203
0.207214
0.205947
0.20448
0.20287
0.201151
0.199353
0.197493
0.195616
0.193785
0.192049
0.190453
0.189046
0.187878
0.186992
0.186408
0.186114
0.186111
0.186431
0.187102
0.188129
0.18952
0.191278
0.19337
0.195728
0.198249
0.200775
0.203036
0.204578
0.205143
0.204893
0.204229
0.203496
0.203018
0.202765
0.202191
0.200513
0.197995
0.195676
0.193507
0.190526
0.186822
0.183789
0.181691
0.180245
0.179424
0.179143
0.179338
0.180993
0.182872
0.186146
0.191922
0.197239
0.20297
0.207986
0.210641
0.208343
0.208249
0.210237
0.213251
0.21971
0.231103
0.246001
0.274002
0.320443
0.448797
0.689721
0.96283
1.21014
1.24313
1.28897
1.0839
0.919003
0.798116
0.670383
0.554613
0.435861
0.330533
0.249653
0.196263
6.83084
1.54143
0.642977
0.369327
0.25744
0.203468
0.175916
0.161759
0.154815
0.151869
0.151164
0.151755
0.153179
0.155131
0.157416
0.160024
0.162977
0.166305
0.170029
0.174136
0.178512
0.182881
0.186889
0.190366
0.193304
0.195749
0.197747
0.199349
0.200401
0.200889
0.200936
0.200629
0.200043
0.19923
0.198232
0.197083
0.195815
0.194457
0.193054
0.191656
0.190307
0.189054
0.187947
0.18704
0.186377
0.185982
0.185858
0.186009
0.186448
0.187185
0.188214
0.189521
0.191083
0.192848
0.19474
0.196657
0.198472
0.200034
0.201186
0.201776
0.201758
0.201366
0.200822
0.200286
0.199727
0.198957
0.197702
0.195896
0.193815
0.19157
0.189024
0.186244
0.183638
0.181483
0.179925
0.179096
0.178961
0.179415
0.180631
0.182576
0.185574
0.189721
0.193842
0.197702
0.201065
0.203581
0.205006
0.206851
0.210088
0.214648
0.221978
0.23402
0.250889
0.278813
0.322716
0.445489
0.684179
0.934096
1.07612
1.10167
1.24775
1.03525
0.877067
0.765584
0.654609
0.549409
0.438508
0.336354
0.255283
0.199672
6.83215
1.54517
0.644957
0.370228
0.257729
0.203635
0.176095
0.161946
0.155006
0.152063
0.15135
0.151913
0.153273
0.155159
0.157355
0.159839
0.162617
0.1657
0.169086
0.172753
0.176635
0.180613
0.184496
0.188091
0.19129
0.194055
0.19639
0.198322
0.199883
0.201015
0.201553
0.201617
0.201302
0.200686
0.199829
0.198781
0.197588
0.196295
0.194951
0.193609
0.192319
0.191127
0.190083
0.189236
0.188626
0.188276
0.188195
0.188384
0.188846
0.189581
0.190576
0.191806
0.193238
0.194818
0.196472
0.198111
0.199626
0.200897
0.201796
0.202227
0.202207
0.201889
0.201454
0.20109
0.200708
0.200086
0.199019
0.1975
0.195723
0.193773
0.191619
0.189356
0.187262
0.185557
0.184388
0.183846
0.183888
0.184446
0.18566
0.187624
0.19053
0.194302
0.198203
0.201946
0.205297
0.208016
0.21011
0.212663
0.216636
0.222144
0.230375
0.242743
0.259661
0.282845
0.319506
0.422677
0.652368
0.904362
1.03199
1.05319
1.19963
0.968827
0.815133
0.712203
0.619248
0.530849
0.434089
0.341755
0.263359
0.205324
6.83355
1.54816
0.646729
0.371002
0.257991
0.203808
0.176256
0.162108
0.155183
0.15226
0.151557
0.152104
0.153417
0.155245
0.157372
0.15976
0.162405
0.165306
0.168451
0.171807
0.175311
0.17886
0.182317
0.185561
0.188519
0.19116
0.193479
0.195486
0.197198
0.198519
0.199346
0.199764
0.199842
0.199635
0.199192
0.198556
0.197768
0.196873
0.195914
0.194939
0.193993
0.19312
0.192365
0.19177
0.191374
0.191202
0.191269
0.191578
0.19213
0.192919
0.19393
0.195134
0.19649
0.197944
0.199427
0.200855
0.202138
0.203184
0.203914
0.204285
0.204315
0.204089
0.203748
0.203368
0.202883
0.202182
0.201162
0.199805
0.198181
0.196362
0.1944
0.192392
0.190506
0.188919
0.187777
0.187165
0.187069
0.187455
0.188394
0.189986
0.192306
0.195238
0.198381
0.201485
0.20447
0.207355
0.210293
0.213823
0.218645
0.225129
0.234273
0.247402
0.265665
0.288611
0.323751
0.417592
0.633072
0.872036
0.989594
1.01238
1.14217
0.896121
0.743729
0.646847
0.571165
0.501473
0.419751
0.338418
0.265193
0.207726
6.835
1.55035
0.648206
0.371671
0.258243
0.203969
0.176379
0.16223
0.155339
0.152458
0.151783
0.152332
0.153616
0.155402
0.157481
0.159801
0.162351
0.165124
0.168103
0.171256
0.174532
0.177856
0.181142
0.184304
0.187278
0.190025
0.192522
0.194763
0.196749
0.198484
0.199823
0.200721
0.201245
0.20145
0.201386
0.2011
0.200638
0.200045
0.199368
0.198654
0.19795
0.197298
0.196742
0.196322
0.196073
0.196019
0.196175
0.196545
0.197126
0.197908
0.19887
0.199981
0.201199
0.202471
0.203735
0.20492
0.205955
0.206774
0.207323
0.207571
0.207541
0.207285
0.206965
0.206595
0.206115
0.205441
0.204503
0.203283
0.201819
0.200172
0.198404
0.196608
0.194915
0.193469
0.192398
0.191777
0.191625
0.191954
0.192823
0.194302
0.196411
0.199049
0.201941
0.204901
0.207893
0.210988
0.21437
0.218429
0.223729
0.230799
0.240249
0.253113
0.270144
0.290989
0.323561
0.405028
0.609007
0.841618
0.954168
0.977935
1.08867
0.821081
0.666689
0.572892
0.513805
0.462872
0.398298
0.330303
0.264652
0.209337
6.83643
1.5517
0.649339
0.372248
0.258479
0.204092
0.176441
0.162303
0.15547
0.152658
0.152034
0.152605
0.153881
0.155642
0.157694
0.159972
0.162461
0.165151
0.168026
0.171058
0.174204
0.177411
0.180612
0.183743
0.186751
0.189592
0.192241
0.19468
0.196903
0.198908
0.200668
0.202017
0.202992
0.203641
0.204008
0.20414
0.20408
0.203872
0.20356
0.203191
0.202807
0.20245
0.20216
0.201975
0.201925
0.202033
0.202314
0.20277
0.203398
0.204184
0.205107
0.206135
0.207228
0.208339
0.209412
0.21039
0.211217
0.211841
0.212221
0.212351
0.212243
0.211954
0.211606
0.211187
0.210644
0.209919
0.208966
0.207772
0.206361
0.204775
0.203081
0.201369
0.199751
0.198346
0.19726
0.196563
0.196295
0.196485
0.197181
0.198415
0.200174
0.202382
0.204864
0.207518
0.210363
0.213509
0.217144
0.221549
0.227171
0.234666
0.244242
0.256782
0.27296
0.292463
0.322998
0.391769
0.578619
0.801304
0.911573
0.934656
1.04607
0.754963
0.592035
0.501999
0.458766
0.423048
0.373993
0.318777
0.261468
0.209715
6.83779
1.55216
0.650099
0.372735
0.258682
0.204148
0.176426
0.162319
0.155579
0.152866
0.152317
0.152932
0.154221
0.155974
0.158019
0.160279
0.162738
0.165388
0.168214
0.171192
0.174288
0.177458
0.18065
0.183814
0.186903
0.189876
0.192706
0.19537
0.197855
0.200153
0.202261
0.204129
0.205616
0.206769
0.207629
0.208235
0.208631
0.208856
0.208955
0.208968
0.208938
0.208904
0.208904
0.20897
0.209132
0.209409
0.209814
0.210349
0.21101
0.211781
0.212641
0.213562
0.214505
0.215429
0.216289
0.217036
0.217627
0.218019
0.218194
0.218159
0.217893
0.217519
0.217095
0.216593
0.215966
0.215169
0.214172
0.212966
0.211567
0.210012
0.208361
0.206689
0.205091
0.203667
0.202512
0.201698
0.201278
0.201297
0.201794
0.202781
0.204236
0.206104
0.208278
0.210709
0.213443
0.216598
0.220351
0.22493
0.23066
0.238232
0.24731
0.25911
0.274091
0.291817
0.320761
0.379677
0.552027
0.76107
0.865716
0.886894
1.02609
0.716614
0.53438
0.44756
0.416221
0.390204
0.351079
0.306214
0.256755
0.209276
6.83902
1.55171
0.650463
0.373123
0.258826
0.204112
0.176325
0.162283
0.155672
0.15309
0.152642
0.153322
0.154643
0.156404
0.158462
0.160729
0.163194
0.165847
0.168675
0.171657
0.174765
0.177962
0.181208
0.184458
0.187674
0.190818
0.19386
0.196777
0.19955
0.202167
0.204619
0.206903
0.208974
0.210696
0.212115
0.213266
0.214185
0.214912
0.215483
0.215938
0.216316
0.216651
0.216978
0.217327
0.217724
0.218185
0.218721
0.219334
0.220019
0.220762
0.221544
0.222339
0.223115
0.223837
0.224469
0.224972
0.22531
0.225457
0.22543
0.225182
0.224722
0.224229
0.223694
0.223077
0.222332
0.221422
0.220327
0.219044
0.217587
0.215991
0.214308
0.212604
0.210958
0.209456
0.208183
0.207213
0.206607
0.206421
0.206689
0.207416
0.208579
0.210139
0.212036
0.214256
0.216858
0.219959
0.223713
0.228331
0.233936
0.241179
0.249583
0.260581
0.274363
0.290343
0.317845
0.369653
0.531002
0.727243
0.826489
0.845235
1.02616
0.707818
0.500547
0.414086
0.38907
0.368043
0.332665
0.294494
0.251358
0.208273
6.84008
1.55033
0.650403
0.373379
0.258884
0.203971
0.176139
0.162201
0.15576
0.153342
0.153018
0.15378
0.155151
0.15694
0.159036
0.161342
0.163847
0.166544
0.169419
0.172456
0.17563
0.17891
0.182264
0.185653
0.189043
0.192399
0.195693
0.198898
0.201993
0.204964
0.207796
0.210482
0.213016
0.215385
0.217444
0.219221
0.220746
0.222051
0.223171
0.224138
0.224985
0.225743
0.226442
0.227107
0.227761
0.228418
0.22909
0.229777
0.230477
0.231177
0.231863
0.232513
0.233102
0.233603
0.233986
0.23422
0.234279
0.234185
0.233894
0.233389
0.232745
0.232078
0.231372
0.230585
0.229673
0.228601
0.227356
0.225938
0.224366
0.222672
0.220898
0.219103
0.217353
0.215724
0.214291
0.213125
0.212296
0.211861
0.211858
0.212293
0.213148
0.214401
0.216024
0.218022
0.220461
0.223445
0.227102
0.231621
0.236882
0.243647
0.251443
0.261685
0.274413
0.288854
0.315317
0.36295
0.516757
0.704555
0.799526
0.815603
1.04427
0.723057
0.483942
0.394723
0.366942
0.34978
0.31926
0.284701
0.246036
0.207023
6.84089
1.54796
0.649946
0.373483
0.258829
0.203723
0.175877
0.162083
0.155852
0.15363
0.153454
0.154315
0.155755
0.1576
0.15976
0.162137
0.164718
0.167497
0.170463
0.173601
0.176891
0.180307
0.183821
0.1874
0.191014
0.19463
0.19822
0.201759
0.205222
0.208591
0.21185
0.214986
0.217989
0.220852
0.223571
0.22609
0.228312
0.230291
0.232048
0.233608
0.234996
0.236238
0.237355
0.238371
0.239305
0.240171
0.240981
0.241738
0.242442
0.243087
0.243661
0.24415
0.244534
0.244793
0.244905
0.244845
0.244631
0.244248
0.243653
0.242848
0.241975
0.241091
0.240172
0.239173
0.238048
0.236767
0.235319
0.23371
0.231961
0.230103
0.228173
0.226223
0.224311
0.222502
0.220862
0.219462
0.218369
0.217644
0.217328
0.217436
0.21796
0.218895
0.220234
0.221996
0.224239
0.227057
0.230543
0.234847
0.239702
0.24601
0.253285
0.262807
0.274669
0.287882
0.31377
0.359713
0.508959
0.692999
0.78641
0.798573
1.08271
0.758438
0.482946
0.385361
0.350669
0.333904
0.308071
0.276511
0.240994
0.205714
6.84139
1.54462
0.649133
0.373405
0.258641
0.203372
0.175545
0.161935
0.15596
0.153971
0.153963
0.154941
0.156474
0.158404
0.160657
0.163136
0.165828
0.168728
0.171827
0.175113
0.178569
0.182172
0.1859
0.189723
0.193614
0.197544
0.201485
0.20541
0.209297
0.213122
0.216867
0.220515
0.224052
0.227464
0.230744
0.233882
0.236872
0.239647
0.242136
0.244375
0.246381
0.248168
0.249754
0.251157
0.252394
0.253481
0.254433
0.255257
0.25596
0.256539
0.25699
0.257304
0.257468
0.257467
0.257285
0.256928
0.256424
0.255705
0.254766
0.253618
0.25247
0.251322
0.250143
0.248882
0.247495
0.245953
0.244248
0.242391
0.240403
0.238316
0.236167
0.233999
0.231864
0.229818
0.227924
0.226246
0.224849
0.223795
0.223128
0.222872
0.223036
0.223629
0.224663
0.226162
0.228181
0.230795
0.234067
0.238116
0.242624
0.248558
0.2554
0.264235
0.275417
0.28772
0.313514
0.3592
0.50619
0.69188
0.787846
0.796948
1.13724
0.809063
0.497843
0.385656
0.339127
0.320781
0.296067
0.268195
0.236231
0.204477
6.84152
1.54034
0.648019
0.37312
0.258308
0.202917
0.175139
0.161765
0.156104
0.154383
0.154565
0.155681
0.157329
0.159372
0.161749
0.164364
0.167204
0.170265
0.173541
0.177023
0.180694
0.184539
0.188536
0.192661
0.196889
0.201194
0.20555
0.209929
0.214307
0.218661
0.222967
0.227206
0.231357
0.235404
0.239328
0.243116
0.246748
0.250205
0.253466
0.256484
0.259176
0.261564
0.263661
0.265481
0.267043
0.268366
0.269465
0.270357
0.271051
0.271554
0.271867
0.271989
0.271912
0.27163
0.271134
0.270497
0.269638
0.26855
0.26723
0.26576
0.264285
0.262815
0.261321
0.25975
0.258052
0.256199
0.254184
0.252021
0.249732
0.247351
0.244915
0.242466
0.240047
0.23771
0.235508
0.233505
0.231762
0.230338
0.229282
0.228626
0.228395
0.228613
0.229308
0.230512
0.232276
0.234661
0.237707
0.241526
0.245787
0.25147
0.257997
0.26621
0.276801
0.288427
0.314445
0.360222
0.50589
0.697157
0.799646
0.808057
1.20789
0.872405
0.529931
0.394655
0.332578
0.310142
0.28496
0.259262
0.230739
0.203163
6.8412
1.5352
0.646659
0.372625
0.25783
0.202346
0.174649
0.161591
0.156316
0.154896
0.155284
0.156556
0.158344
0.160529
0.163064
0.16585
0.168877
0.172142
0.175642
0.179368
0.18331
0.187453
0.19178
0.196272
0.200905
0.205656
0.210501
0.215414
0.220368
0.22534
0.230302
0.235231
0.240102
0.244889
0.249568
0.254109
0.258478
0.262639
0.266555
0.270195
0.273534
0.276548
0.279175
0.281429
0.28333
0.284895
0.286144
0.287093
0.287761
0.28816
0.288299
0.288184
0.287816
0.287189
0.28637
0.285331
0.284036
0.282489
0.280703
0.278842
0.277015
0.275231
0.273445
0.271586
0.269594
0.267435
0.2651
0.262603
0.259971
0.257241
0.254455
0.251658
0.248894
0.246208
0.243647
0.241269
0.239133
0.237298
0.235815
0.234725
0.234063
0.233867
0.234179
0.235045
0.236516
0.238652
0.241477
0.245107
0.249222
0.25476
0.261068
0.268776
0.278774
0.289992
0.316323
0.361997
0.506233
0.704641
0.817941
0.827736
1.29234
0.956015
0.5811
0.409582
0.331826
0.298664
0.274683
0.250315
0.224665
0.201309
6.8404
1.52929
0.645087
0.371939
0.257225
0.201633
0.174076
0.161455
0.156635
0.155538
0.156147
0.157592
0.159545
0.161907
0.164635
0.167631
0.170887
0.174401
0.178173
0.182198
0.186467
0.190971
0.195696
0.200626
0.205742
0.211024
0.216448
0.221991
0.227626
0.233326
0.239063
0.244808
0.25053
0.256194
0.26176
0.267179
0.272394
0.277346
0.281982
0.286261
0.290153
0.293643
0.296724
0.299393
0.301617
0.303405
0.304777
0.305753
0.306352
0.306591
0.306487
0.306054
0.305302
0.304271
0.303039
0.301521
0.299731
0.297675
0.295374
0.293073
0.290843
0.288684
0.286541
0.284339
0.282015
0.27953
0.276871
0.274042
0.271063
0.267965
0.264793
0.261597
0.258429
0.255336
0.252365
0.249564
0.246989
0.244699
0.242749
0.241187
0.240057
0.239409
0.239295
0.239772
0.240902
0.242752
0.245357
0.248825
0.252863
0.258289
0.264391
0.271805
0.281287
0.292537
0.319077
0.36431
0.506759
0.712587
0.83915
0.849279
1.3973
1.06495
0.649936
0.426586
0.333525
0.28703
0.26591
0.241681
0.218754
0.198571
6.83907
1.52268
0.643326
0.371107
0.256499
0.200757
0.173453
0.161416
0.1571
0.156338
0.157179
0.158819
0.160966
0.16354
0.166501
0.169749
0.173278
0.177091
0.181188
0.185569
0.190229
0.195163
0.200361
0.205813
0.211502
0.217412
0.223524
0.229814
0.236256
0.242823
0.249483
0.256204
0.262943
0.269651
0.276262
0.282696
0.288868
0.2947
0.300126
0.305102
0.309596
0.313592
0.317082
0.320063
0.322542
0.324528
0.326006
0.32698
0.327474
0.327511
0.327116
0.326311
0.325115
0.323683
0.321929
0.319862
0.317492
0.314835
0.311988
0.309163
0.306431
0.303784
0.30116
0.298484
0.295692
0.29275
0.289647
0.286388
0.282992
0.279483
0.275896
0.272272
0.268659
0.265109
0.261673
0.258402
0.255347
0.252561
0.250104
0.248031
0.246396
0.245257
0.244674
0.244714
0.24545
0.24696
0.249304
0.252604
0.256585
0.261891
0.267773
0.275198
0.284416
0.296233
0.322817
0.367297
0.507859
0.720587
0.861035
0.87098
1.52147
1.19271
0.724389
0.445669
0.339353
0.280563
0.260547
0.235249
0.214503
0.195739
6.83722
1.51537
0.641452
0.370211
0.255626
0.199723
0.172852
0.161531
0.157748
0.157327
0.158414
0.160273
0.162647
0.165472
0.168709
0.172253
0.176104
0.180267
0.184748
0.189548
0.194669
0.20011
0.205867
0.211934
0.218302
0.224957
0.231885
0.239065
0.246472
0.254078
0.26185
0.269746
0.277709
0.285657
0.293485
0.301076
0.308322
0.315131
0.32144
0.327199
0.332374
0.336941
0.340884
0.344197
0.346882
0.348949
0.350417
0.35131
0.351649
0.351428
0.350673
0.349414
0.347769
0.345796
0.343436
0.34072
0.337665
0.334302
0.330816
0.327391
0.324081
0.320858
0.317653
0.314386
0.310997
0.307455
0.303757
0.299918
0.295962
0.29192
0.287822
0.2837
0.27959
0.275535
0.271585
0.267793
0.264211
0.260891
0.257891
0.255271
0.253094
0.251425
0.250333
0.249892
0.250182
0.251292
0.253307
0.256367
0.260245
0.265465
0.271164
0.278931
0.28825
0.301096
0.327628
0.371279
0.510333
0.72926
0.884628
0.895262
1.65771
1.32765
0.788841
0.473231
0.350167
0.280991
0.260164
0.232031
0.212641
0.193988
6.83482
1.5075
0.639548
0.36933
0.254537
0.198557
0.172366
0.161854
0.158613
0.158539
0.15989
0.161995
0.164632
0.167753
0.17131
0.175198
0.179423
0.183994
0.18892
0.19421
0.199869
0.205902
0.212315
0.219107
0.226277
0.233816
0.241716
0.249961
0.258528
0.267392
0.276514
0.285835
0.295263
0.304665
0.313887
0.322786
0.331245
0.339175
0.346508
0.353187
0.359163
0.364392
0.368842
0.372499
0.375361
0.377444
0.378776
0.379396
0.379346
0.37867
0.377414
0.375628
0.373498
0.37087
0.367802
0.364329
0.360479
0.356298
0.352098
0.34802
0.344072
0.340199
0.336319
0.332351
0.32824
0.323962
0.319521
0.314942
0.310264
0.305524
0.300762
0.296012
0.291302
0.286663
0.282132
0.277758
0.273593
0.269691
0.266108
0.262906
0.260152
0.25792
0.256283
0.255321
0.25512
0.255775
0.257385
0.260104
0.263766
0.268946
0.274544
0.282926
0.292756
0.306936
0.333492
0.376557
0.514436
0.741595
0.917132
0.927886
1.8032
1.45933
0.855953
0.518983
0.370239
0.289452
0.263854
0.232181
0.213311
0.193796
6.83185
1.49925
0.637715
0.368513
0.253184
0.197296
0.172074
0.16243
0.159733
0.160014
0.16165
0.164033
0.166973
0.170439
0.174364
0.178647
0.183302
0.188341
0.193779
0.199633
0.205915
0.212639
0.219818
0.227462
0.235579
0.244169
0.253231
0.262758
0.272734
0.283133
0.293904
0.304946
0.316103
0.32718
0.337993
0.348396
0.358281
0.367556
0.376139
0.383942
0.390878
0.396873
0.401872
0.405846
0.408801
0.410766
0.411792
0.411943
0.411289
0.4099
0.407834
0.405299
0.402322
0.39887
0.394985
0.390692
0.385969
0.380971
0.376079
0.371343
0.366715
0.362121
0.357473
0.352692
0.34773
0.34257
0.337231
0.331751
0.326178
0.320565
0.314963
0.309414
0.303953
0.298604
0.293392
0.288351
0.283529
0.27898
0.274759
0.27093
0.267562
0.26473
0.262514
0.260998
0.260268
0.260421
0.261561
0.263848
0.267178
0.272278
0.277826
0.286991
0.297654
0.313389
0.340365
0.383634
0.521692
0.760392
0.965041
0.975548
1.95182
1.61153
0.96088
0.582045
0.402673
0.307038
0.27103
0.235704
0.21593
0.194831
6.82828
1.49094
0.636037
0.367671
0.251569
0.196037
0.172047
0.163306
0.16115
0.161798
0.163743
0.16644
0.169729
0.173596
0.177936
0.182667
0.187808
0.19338
0.199403
0.205902
0.2129
0.220423
0.228496
0.23714
0.246377
0.25622
0.266683
0.277769
0.289473
0.301761
0.314539
0.327628
0.34079
0.353798
0.366475
0.378696
0.390353
0.401336
0.411507
0.420724
0.42884
0.435722
0.441275
0.445465
0.448316
0.449897
0.45031
0.449669
0.448086
0.445663
0.442522
0.438995
0.43489
0.430286
0.42523
0.419769
0.413952
0.408273
0.402862
0.397536
0.392238
0.386893
0.381412
0.375722
0.369782
0.363594
0.357191
0.350631
0.34398
0.337307
0.330675
0.32414
0.317747
0.311524
0.30549
0.299667
0.294091
0.288809
0.283877
0.279357
0.27532
0.271842
0.269006
0.266897
0.265603
0.265213
0.265832
0.267624
0.270543
0.275457
0.281006
0.290796
0.3024
0.319955
0.347929
0.392724
0.532198
0.785803
1.03365
1.04367
2.08033
1.7701
1.12094
0.689387
0.449278
0.330003
0.280757
0.240811
0.218915
0.19622
6.82406
1.48302
0.634569
0.366567
0.249741
0.194954
0.172366
0.164529
0.162912
0.16394
0.166224
0.169275
0.172965
0.177288
0.182093
0.187327
0.193014
0.199182
0.205864
0.213096
0.220915
0.229361
0.238473
0.248295
0.258863
0.270213
0.282379
0.295386
0.30923
0.323839
0.339024
0.354504
0.370003
0.385321
0.400322
0.41489
0.428912
0.442219
0.454497
0.465737
0.475606
0.483743
0.489918
0.494077
0.496318
0.496845
0.495912
0.493781
0.49068
0.48673
0.4822
0.477161
0.471587
0.465528
0.459034
0.452147
0.44493
0.438276
0.432409
0.426626
0.420757
0.414706
0.408386
0.401729
0.394712
0.387355
0.37972
0.371891
0.363959
0.356018
0.348149
0.340425
0.332902
0.325616
0.318591
0.31184
0.305385
0.299264
0.293526
0.288231
0.283451
0.279263
0.275749
0.272998
0.271095
0.270125
0.270184
0.271437
0.273896
0.278501
0.284041
0.294146
0.306501
0.325893
0.355272
0.403089
0.545032
0.816499
1.11628
1.12708
2.17223
1.91332
1.31674
0.840952
0.508084
0.356364
0.290052
0.2453
0.2204
0.196848
6.81915
1.47609
0.633397
0.365015
0.247718
0.194176
0.173095
0.16615
0.165068
0.166495
0.169151
0.172604
0.176752
0.181585
0.186904
0.192691
0.198981
0.205812
0.213231
0.221291
0.230046
0.239556
0.249885
0.261098
0.273263
0.286448
0.300716
0.316115
0.332614
0.350032
0.368052
0.38635
0.404707
0.422997
0.441191
0.45896
0.476907
0.495243
0.51352
0.530819
0.5459
0.557597
0.565213
0.568658
0.568352
0.565002
0.559391
0.552251
0.544232
0.535957
0.528319
0.520758
0.513104
0.505137
0.496788
0.488126
0.479221
0.471427
0.464647
0.458555
0.452276
0.445657
0.438575
0.430965
0.422817
0.414181
0.405155
0.395863
0.386435
0.376996
0.367661
0.358521
0.349648
0.341092
0.332882
0.325031
0.31755
0.310462
0.303806
0.297636
0.292021
0.287038
0.282772
0.279311
0.276741
0.275145
0.27461
0.275292
0.277245
0.281417
0.286844
0.296981
0.309703
0.330593
0.36106
0.413123
0.558079
0.847808
1.19379
1.2067
2.29268
2.02801
1.54822
0.99098
0.560701
0.374257
0.294315
0.246211
0.21811
0.195153
6.81353
1.47083
0.632703
0.362824
0.245487
0.193818
0.174299
0.168219
0.167673
0.169521
0.172588
0.176495
0.181167
0.186554
0.192429
0.198815
0.20576
0.213319
0.221558
0.230549
0.240373
0.251119
0.262879
0.275758
0.289865
0.305315
0.322216
0.340607
0.36035
0.381104
0.402499
0.424316
0.446517
0.468924
0.492985
0.520085
0.551043
0.586125
0.624313
0.662706
0.696856
0.722322
0.73629
0.738236
0.729615
0.712952
0.690946
0.665936
0.639943
0.616399
0.596505
0.579469
0.564757
0.551753
0.539833
0.528485
0.517616
0.508293
0.50027
0.49328
0.48678
0.479756
0.472062
0.463593
0.454338
0.44437
0.433832
0.422898
0.411754
0.400576
0.389517
0.378705
0.368236
0.358178
0.348569
0.339423
0.330746
0.322545
0.314845
0.307686
0.301131
0.295257
0.290149
0.285896
0.282586
0.280304
0.27913
0.279204
0.280601
0.284218
0.289365
0.299246
0.311984
0.333672
0.364665
0.42041
0.56498
0.870452
1.24747
1.26348
2.44854
2.10314
1.71244
1.07726
0.586951
0.374621
0.287858
0.241056
0.210399
0.190112
6.80731
1.4679
0.632752
0.359802
0.243084
0.194014
0.176042
0.170791
0.170781
0.173078
0.176601
0.181021
0.18629
0.192249
0.198711
0.205732
0.21338
0.221732
0.230881
0.240927
0.251983
0.264175
0.277643
0.292543
0.309048
0.32734
0.347557
0.369643
0.393267
0.418018
0.443689
0.470282
0.49912
0.533901
0.577859
0.634808
0.708172
0.799178
0.904298
1.01372
1.11235
1.18607
1.22618
1.23088
1.20418
1.15328
1.08585
1.00797
0.925023
0.849812
0.780693
0.720478
0.671281
0.633222
0.604388
0.582041
0.564431
0.550904
0.540269
0.53165
0.524227
0.51698
0.508849
0.499687
0.489435
0.478163
0.466051
0.453339
0.440279
0.427114
0.414061
0.401297
0.388958
0.377137
0.365888
0.355231
0.345166
0.335688
0.3268
0.318528
0.310919
0.304046
0.297994
0.292855
0.288718
0.285671
0.283795
0.283212
0.283992
0.286936
0.291616
0.300923
0.313454
0.33492
0.366595
0.423045
0.563919
0.87662
1.25883
1.2794
2.53996
2.07056
1.59252
1.0122
0.547347
0.357102
0.274361
0.232024
0.200894
0.183665
6.8001
1.46627
0.632021
0.356418
0.241144
0.194853
0.178359
0.173914
0.174451
0.177229
0.181258
0.186257
0.192177
0.198701
0.205763
0.213446
0.221843
0.231065
0.241233
0.252485
0.264978
0.278888
0.294421
0.311812
0.331325
0.353215
0.377566
0.404104
0.432392
0.462279
0.493976
0.532463
0.584532
0.658981
0.766282
0.916027
1.11338
1.35459
1.62393
1.89194
2.12205
2.28877
2.37883
2.39204
2.33826
2.23276
2.0916
1.92755
1.76038
1.5925
1.41948
1.24449
1.07775
0.93159
0.814276
0.726573
0.665072
0.624909
0.598632
0.580798
0.568093
0.558363
0.549257
0.539356
0.528206
0.515728
0.502064
0.487502
0.472368
0.456991
0.441671
0.426658
0.412146
0.39827
0.385109
0.372697
0.36103
0.350089
0.339857
0.330334
0.321549
0.313562
0.306456
0.300325
0.295262
0.291357
0.288695
0.287383
0.287476
0.289642
0.293681
0.302106
0.314288
0.33455
0.367112
0.42196
0.557491
0.864893
1.22982
1.25771
2.52012
1.85779
1.30834
0.814641
0.467488
0.333629
0.262296
0.223629
0.193879
0.179079
6.79184
1.46587
0.629945
0.352989
0.240016
0.19639
0.181283
0.177624
0.178731
0.182037
0.186637
0.192286
0.198827
0.205892
0.213557
0.22193
0.231137
0.241324
0.252651
0.265302
0.279495
0.295478
0.313547
0.334052
0.357376
0.383788
0.413156
0.445034
0.479321
0.517168
0.56846
0.647047
0.773305
0.969569
1.25133
1.61985
2.06157
2.5422
3.02834
3.47986
3.85562
4.1231
4.26609
4.28693
4.20156
4.03344
3.80818
3.55163
3.30334
3.04237
2.76355
2.4618
2.14118
1.81802
1.51776
1.25932
1.05194
0.895857
0.784543
0.707021
0.656309
0.624194
0.603143
0.586923
0.572253
0.557597
0.54217
0.525692
0.508372
0.490596
0.472753
0.455189
0.438181
0.421929
0.406555
0.392112
0.378599
0.365987
0.354235
0.343332
0.333243
0.324015
0.315729
0.308483
0.302377
0.297504
0.293951
0.291815
0.291138
0.292433
0.295682
0.302995
0.314661
0.333173
0.36629
0.418358
0.548642
0.840551
1.17838
1.21312
2.45148
1.60976
1.0486
0.655486
0.421556
0.318997
0.256065
0.218555
0.190701
0.17733
6.78257
1.467
0.626451
0.349615
0.239815
0.198666
0.184852
0.181969
0.183672
0.187553
0.192789
0.199145
0.206198
0.213788
0.222054
0.231144
0.241244
0.252528
0.265195
0.279498
0.29573
0.314245
0.335467
0.359905
0.388046
0.419994
0.455348
0.493913
0.538507
0.605126
0.720602
0.926455
1.26339
1.74558
2.34801
3.01609
3.70586
4.39363
5.06201
5.67496
6.18258
6.53824
6.72224
6.74011
6.61392
6.37429
6.05545
5.71031
5.36103
5.00469
4.63019
4.22436
3.78335
3.31837
2.85087
2.4057
2.00395
1.65494
1.3676
1.14185
0.968064
0.838944
0.746309
0.684584
0.643966
0.614579
0.590851
0.569526
0.548955
0.528419
0.507766
0.487339
0.467499
0.448526
0.430601
0.413819
0.398209
0.383698
0.370227
0.357746
0.346202
0.335602
0.326009
0.317521
0.310244
0.304278
0.299712
0.296639
0.295095
0.295436
0.297771
0.303837
0.314751
0.331468
0.364469
0.413494
0.539125
0.811148
1.12166
1.16095
2.42513
1.45801
0.908725
0.578147
0.405669
0.315186
0.254467
0.21646
0.190334
0.177645
6.7724
1.4701
0.621443
0.346314
0.240572
0.201698
0.189103
0.186992
0.189321
0.19383
0.199752
0.206698
0.214166
0.222274
0.231195
0.241109
0.252211
0.264724
0.27896
0.295246
0.313949
0.335587
0.360764
0.390178
0.424271
0.462796
0.505402
0.556353
0.638882
0.798984
1.11227
1.64578
2.39691
3.28337
4.20037
5.09398
5.95407
6.79139
7.59705
8.33193
8.9309
9.33831
9.53503
9.5336
9.36361
9.0613
8.66604
8.24444
7.80186
7.35478
6.89447
6.39921
5.85292
5.26124
4.64494
4.02891
3.44071
2.90512
2.43707
2.03858
1.6974
1.40699
1.16983
0.985756
0.850093
0.752064
0.684671
0.637913
0.60285
0.573913
0.548071
0.523903
0.50069
0.478563
0.457725
0.438261
0.420215
0.403525
0.388104
0.373855
0.36069
0.348574
0.337537
0.327668
0.31908
0.311879
0.306162
0.302018
0.29949
0.298797
0.300115
0.304878
0.314764
0.329963
0.362144
0.408959
0.530084
0.783067
1.07155
1.11174
2.48197
1.41814
0.851996
0.548369
0.397864
0.313144
0.254962
0.21642
0.191867
0.179162
6.76141