/*--------------------------------*- C++ -*----------------------------------*\
| =========                 |                                                 |
| \\      /  F ield         | OpenFOAM: The Open Source CFD Toolbox           |
|  \\    /   O peration     | Version:  v2106                                 |
|   \\  /    A nd           | Website:  www.openfoam.com                      |
|    \\/     M anipulation  |                                                 |
\*---------------------------------------------------------------------------*/
FoamFile
{
    version     2.0;
    format      ascii;
    arch        "LSB;label=32;scalar=64";
    class       volScalarField;
    location    "1.8";
    object      p;
}
// * * * * * * * * * * * * * * * * * * * * * * * * * * * * * * * * * * * * * //

dimensions      [1 -1 -2 0 0 0 0];

internalField   nonuniform List<scalar> 
29678
(
14641.1
14494
14346.8
14199.6
14052.5
13905.3
13758.1
13610.8
13463.6
13316.4
13169.1
13021.8
12874.4
12727.1
12579.6
12431.9
12283.9
12135.1
11984.7
11831.6
11674
11505.1
11344
11189.8
11037.5
10886.2
10735.3
10584.8
10434.4
10284.2
10134.1
9984.06
9834.08
9684.15
9534.29
9384.47
9234.71
9085
8935.35
8785.77
8636.27
8486.84
8337.49
8188.24
8039.07
7890.01
7741.05
7592.17
7443.39
7294.71
7146.13
6997.63
6849.22
6700.86
6552.5
6404.04
6255.25
6105.62
5954.42
5799.94
5642.78
5489.5
5339.25
5190.24
5041.81
4893.64
4745.62
4595.86
4446.64
4297.61
4148.95
4000.23
3851.02
3701.9
3552.99
3404.21
3255.52
3106.88
2957.59
2807.57
2657.8
2507.95
2359.34
2210.73
2062.03
1913
1764.21
1614.43
1465.8
1316.62
1167.58
1018.77
869.97
721.481
573.134
424.694
276.012
129.176
23.8896
0.0838008
-0.256241
-0.32439
-0.533479
-0.684487
-0.869276
-1.04332
-1.22441
-1.40375
-1.58584
-1.76779
14640.6
14493.5
14346.3
14199.1
14051.8
13904.5
13757.2
13609.8
13462.5
13315
13167.5
13019.9
12872.3
12724.5
12576.5
12428.2
12279.7
12130.7
11981.1
11830.2
11676.3
11511.8
11349.8
11194.4
11041.4
10889.5
10738.1
10587.2
10436.4
10285.9
10135.5
9985.23
9835.03
9684.92
9534.87
9384.89
9234.98
9085.13
8935.35
8785.64
8636
8486.43
8336.95
8187.57
8038.28
7889.09
7740
7590.99
7442.07
7293.22
7144.45
6995.73
6847.06
6698.4
6549.7
6400.88
6251.82
6102.38
5952.03
5798.69
5641.56
5489.86
5339.75
5190.55
5041.89
4893.58
4745.48
4595.86
4446.55
4297.45
4148.74
3999.95
3850.76
3701.64
3552.71
3403.93
3255.26
3106.68
2957.61
2807.93
2658.19
2508.23
2359.47
2210.7
2061.89
1912.81
1764.19
1614.37
1465.5
1316.28
1167.2
1018.29
869.547
720.902
572.379
423.956
275.865
127.798
24.0406
-0.0078856
-0.224727
-0.323334
-0.512058
-0.674234
-0.856897
-1.03453
-1.21652
-1.3978
-1.58111
-1.76438
14640.2
14493
14345.8
14198.5
14051.2
13903.8
13756.4
13608.9
13461.3
13313.7
13166
13018.2
12870.2
12722
12573.6
12424.8
12275.6
12125.6
11974.5
11821.4
11666.1
11508.8
11352.3
11197.9
11044.7
10892.4
10740.7
10589.3
10438.3
10287.5
10136.8
9986.3
9835.89
9685.57
9535.34
9385.2
9235.13
9085.13
8935.22
8785.38
8635.63
8485.95
8336.36
8186.88
8037.5
7888.21
7739.02
7589.92
7440.89
7291.93
7143.04
6994.18
6845.34
6696.47
6547.51
6398.36
6248.87
6098.8
5947.68
5795.63
5643.14
5492.03
5341.9
5192.37
5043.23
4894.3
4745.42
4596.29
4447.2
4298.22
4149.31
4000.41
3851.41
3702.45
3553.52
3404.62
3255.71
3106.74
2957.57
2808.2
2658.84
2509.57
2360.46
2211.44
2062.41
1913.29
1764.15
1614.79
1465.61
1316.37
1167.15
1018.01
868.96
720.005
571.218
422.608
274.552
127.14
27.223
0.02978
-0.147844
-0.309993
-0.492086
-0.665957
-0.847433
-1.02837
-1.21099
-1.39416
-1.57802
-1.76237
14639.7
14492.5
14345.3
14198
14050.6
13903.1
13755.6
13608
13460.3
13312.5
13164.6
13016.5
12868.3
12719.8
12571
12421.9
12272.3
12121.9
11970.8
11818.6
11665.2
11510.4
11355.2
11200.9
11047.5
10894.9
10742.9
10591.3
10440
10288.9
10138
9987.24
9836.62
9686.12
9535.71
9385.4
9235.18
9085.04
8934.99
8785.03
8635.15
8485.37
8335.68
8186.09
8036.61
7887.22
7737.93
7588.71
7439.57
7290.5
7141.47
6992.47
6843.46
6694.41
6545.25
6395.92
6246.32
6096.34
5945.93
5794.97
5643.55
5492.65
5342.41
5192.71
5043.4
4894.32
4745.35
4596.26
4447.17
4298.16
4149.23
4000.3
3851.33
3702.37
3553.44
3404.53
3255.63
3106.68
2957.6
2808.39
2659.1
2509.8
2360.65
2211.55
2062.46
1913.32
1764.18
1614.82
1465.53
1316.22
1166.89
1017.58
868.302
719.08
569.984
420.93
272.312
123.417
24.983
0.05096
-0.125132
-0.295011
-0.476273
-0.65535
-0.837988
-1.02097
-1.20487
-1.38926
-1.57413
-1.75939
14639.3
14492.1
14344.9
14197.5
14050.1
13902.5
13754.9
13607.2
13459.3
13311.4
13163.3
13015
12866.6
12717.8
12568.8
12419.4
12269.5
12119
11967.9
11815.8
11662.9
11509.1
11355.2
11201.7
11048.8
10896.3
10744.3
10592.6
10441.2
10289.9
10138.9
9987.96
9837.18
9686.51
9535.95
9385.48
9235.12
9084.84
8934.66
8784.58
8634.59
8484.69
8334.9
8185.21
8035.62
7886.13
7736.74
7587.43
7438.19
7289.01
7139.88
6990.77
6841.65
6692.49
6543.24
6393.84
6244.24
6094.37
5944.17
5793.66
5643.05
5492.7
5342.74
5193.16
5043.83
4894.67
4745.59
4596.54
4447.52
4298.55
4149.62
4000.7
3851.78
3702.87
3553.95
3405.02
3256.06
3107.04
2957.95
2808.79
2659.6
2510.42
2361.27
2212.11
2062.92
1913.68
1764.37
1614.98
1465.56
1316.09
1166.59
1017.05
867.492
717.899
568.384
418.625
269.436
119.543
22.6529
0.0764272
-0.0987715
-0.277511
-0.461908
-0.644841
-0.829337
-1.01418
-1.19943
-1.38497
-1.57077
-1.75682
14639
14491.8
14344.5
14197.1
14049.6
13902
13754.3
13606.5
13458.5
13310.4
13162.2
13013.7
12865.1
12716.2
12567
12417.4
12267.3
12116.8
11965.7
11813.9
11661.6
11508.7
11355.7
11202.7
11050.1
10897.7
10745.7
10593.9
10442.3
10290.9
10139.7
9988.61
9837.66
9686.83
9536.11
9385.49
9234.97
9084.56
8934.24
8784.03
8633.92
8483.91
8334.01
8184.22
8034.53
7884.95
7735.46
7586.06
7436.73
7287.47
7138.25
6989.06
6839.86
6690.63
6541.33
6391.92
6242.36
6092.62
5942.69
5792.61
5642.49
5492.48
5342.69
5193.16
5043.83
4894.66
4745.57
4596.54
4447.55
4298.6
4149.68
4000.77
3851.86
3702.96
3554.05
3405.13
3256.19
3107.21
2958.17
2809.08
2659.94
2510.78
2361.6
2212.4
2063.17
1913.89
1764.54
1615.1
1465.6
1316.03
1166.37
1016.63
866.803
716.829
566.871
416.398
266.509
114.733
19.5891
0.11454
-0.0785742
-0.259775
-0.449161
-0.634878
-0.821327
-1.00779
-1.1943
-1.38089
-1.56758
-1.75438
14638.8
14491.6
14344.3
14196.8
14049.3
13901.6
13753.8
13605.9
13457.8
13309.6
13161.2
13012.7
12863.9
12714.8
12565.4
12415.7
12265.6
12115.1
11964.1
11812.5
11660.6
11508.2
11355.7
11203.2
11050.8
10898.6
10746.6
10594.7
10443.1
10291.6
10140.3
9989.05
9837.95
9686.98
9536.11
9385.34
9234.69
9084.13
8933.69
8783.35
8633.12
8483
8333
8183.11
8033.33
7883.65
7734.08
7584.6
7435.2
7285.86
7136.58
6987.32
6838.08
6688.81
6539.5
6390.12
6240.63
6091.04
5941.33
5791.54
5641.74
5492.01
5342.43
5193.02
5043.76
4894.62
4745.57
4596.58
4447.63
4298.72
4149.83
4000.96
3852.09
3703.22
3554.34
3405.45
3256.52
3107.55
2958.54
2809.47
2660.37
2511.23
2362.05
2212.84
2063.58
1914.24
1764.82
1615.32
1465.72
1316.01
1166.19
1016.23
866.126
715.76
565.38
414.168
263.523
110.232
16.9883
0.1455
-0.0620785
-0.244341
-0.438256
-0.626081
-0.81428
-1.00215
-1.1898
-1.37731
-1.5648
-1.75228
14638.7
14491.4
14344.1
14196.6
14049
13901.3
13753.4
13605.4
13457.3
13309
13160.5
13011.8
12862.9
12713.7
12564.2
12414.4
12264.3
12113.8
11962.9
11811.5
11659.9
11507.9
11355.7
11203.5
11051.3
10899.2
10747.3
10595.4
10443.7
10292.2
10140.7
9989.36
9838.13
9687.01
9536
9385.09
9234.29
9083.6
8933.02
8782.56
8632.21
8481.98
8331.87
8181.88
8032.01
7882.25
7732.6
7583.04
7433.58
7284.19
7134.86
6985.56
6836.29
6687.02
6537.73
6388.39
6239
6089.54
5940.02
5790.46
5640.9
5491.4
5342
5192.72
5043.56
4894.48
4745.49
4596.55
4447.65
4298.78
4149.94
4001.1
3852.27
3703.44
3554.59
3405.72
3256.82
3107.88
2958.89
2809.86
2660.79
2511.67
2362.5
2213.27
2063.98
1914.62
1765.16
1615.59
1465.91
1316.11
1166.15
1016.02
865.695
715.004
564.281
412.486
261.416
106.806
15.1255
0.163335
-0.0476695
-0.232163
-0.429422
-0.618694
-0.808313
-0.997346
-1.18593
-1.37425
-1.56242
-1.75051
14638.6
14491.4
14344
14196.5
14048.9
13901.1
13753.2
13605.1
13456.9
13308.5
13159.9
13011.1
12862.1
12712.9
12563.3
12413.5
12263.3
12112.8
11962
11810.8
11659.3
11507.6
11355.7
11203.7
11051.7
10899.7
10747.8
10596
10444.2
10292.5
10141
9989.53
9838.17
9686.91
9535.75
9384.7
9233.76
9082.93
8932.22
8781.63
8631.16
8480.82
8330.6
8180.52
8030.56
7880.72
7731
7581.38
7431.86
7282.43
7133.07
6983.76
6834.48
6685.22
6535.97
6386.7
6237.4
6088.07
5938.71
5789.35
5639.99
5490.69
5341.45
5192.31
5043.24
4894.26
4745.33
4596.46
4447.62
4298.81
4150.01
4001.23
3852.44
3703.65
3554.84
3406
3257.14
3108.24
2959.29
2810.29
2661.25
2512.15
2362.99
2213.77
2064.47
1915.08
1765.59
1615.98
1466.24
1316.35
1166.28
1016
865.503
714.557
563.582
411.381
260.05
104.702
14.0837
0.174148
-0.0385387
-0.223453
-0.422923
-0.612865
-0.80354
-0.993456
-1.18278
-1.37174
-1.56046
-1.74907
14638.7
14491.5
14344.1
14196.6
14048.9
13901.1
13753.1
13605
13456.7
13308.2
13159.6
13010.7
12861.6
12712.3
12562.7
12412.8
12262.7
12112.2
11961.4
11810.4
11659
11507.5
11355.8
11203.9
11052
10900.1
10748.2
10596.3
10444.5
10292.8
10141.1
9989.57
9838.07
9686.68
9535.37
9384.18
9233.09
9082.12
8931.27
8780.55
8629.96
8479.51
8329.19
8179.01
8028.97
7879.05
7729.27
7579.6
7430.04
7280.58
7131.2
6981.89
6832.62
6683.4
6534.2
6385
6235.8
6086.6
5937.39
5788.2
5639.02
5489.89
5340.81
5191.8
5042.85
4893.96
4745.12
4596.32
4447.55
4298.8
4150.07
4001.34
3852.61
3703.86
3555.1
3406.31
3257.48
3108.62
2959.71
2810.76
2661.74
2512.67
2363.54
2214.32
2065.03
1915.63
1766.12
1616.49
1466.71
1316.76
1166.61
1016.22
865.609
714.494
563.359
410.931
259.477
103.894
13.7279
0.178857
-0.0336733
-0.217892
-0.418667
-0.608621
-0.799985
-0.990496
-1.18034
-1.36978
-1.55893
-1.74793
14638.9
14491.7
14344.3
14196.7
14049
13901.2
13753.2
13605
13456.6
13308.1
13159.4
13010.5
12861.3
12711.9
12562.3
12412.4
12262.3
12111.8
11961.1
11810.1
11658.9
11507.4
11355.8
11204.1
11052.3
10900.4
10748.5
10596.6
10444.8
10292.9
10141.2
9989.48
9837.85
9686.31
9534.86
9383.51
9232.28
9081.16
8930.17
8779.32
8628.61
8478.04
8327.62
8177.34
8027.22
7877.24
7727.4
7577.69
7428.1
7278.62
7129.23
6979.93
6830.7
6681.52
6532.38
6383.27
6234.18
6085.1
5936.04
5787
5637.99
5489.01
5340.08
5191.2
5042.37
4893.59
4744.84
4596.13
4447.44
4298.77
4150.1
4001.44
3852.76
3704.07
3555.36
3406.62
3257.85
3109.03
2960.17
2811.26
2662.29
2513.25
2364.14
2214.95
2065.67
1916.28
1766.77
1617.13
1467.33
1317.35
1167.16
1016.72
866.04
714.841
563.629
411.131
259.654
104.182
13.9027
0.178997
-0.0318528
-0.214983
-0.416282
-0.605891
-0.797602
-0.988439
-1.1786
-1.36834
-1.55778
-1.74706
14639.3
14492
14344.6
14197
14049.3
13901.4
13753.4
13605.2
13456.8
13308.2
13159.4
13010.5
12861.3
12711.8
12562.2
12412.3
12262.1
12111.7
11961
11810
11658.9
11507.5
11356
11204.3
11052.5
10900.6
10748.7
10596.8
10444.9
10293
10141.1
9989.27
9837.5
9685.81
9534.21
9382.7
9231.31
9080.04
8928.91
8777.92
8627.08
8476.39
8325.87
8175.5
8025.3
7875.26
7725.37
7575.62
7426.01
7276.53
7127.15
6977.88
6828.69
6679.57
6530.51
6381.49
6232.51
6083.56
5934.64
5785.75
5636.89
5488.07
5339.29
5190.54
5041.83
4893.16
4744.52
4595.9
4447.3
4298.71
4150.12
4001.52
3852.92
3704.29
3555.64
3406.96
3258.24
3109.48
2960.67
2811.8
2662.87
2513.88
2364.81
2215.65
2066.4
1917.04
1767.55
1617.92
1468.12
1318.14
1167.94
1017.49
866.801
715.591
564.37
411.923
260.499
105.355
14.5142
0.175569
-0.0320047
-0.214294
-0.415341
-0.604499
-0.796304
-0.987214
-1.17749
-1.36739
-1.55698
-1.74642
14639.8
14492.5
14345.1
14197.5
14049.7
13901.8
13753.7
13605.5
13457.1
13308.5
13159.7
13010.6
12861.4
12711.9
12562.3
12412.3
12262.1
12111.7
11961.1
11810.2
11659
11507.7
11356.2
11204.5
11052.8
10900.9
10748.9
10597
10444.9
10292.9
10140.9
9988.95
9837.03
9685.18
9533.41
9381.74
9230.18
9078.75
8927.46
8776.33
8625.35
8474.55
8323.92
8173.46
8023.19
7873.09
7723.15
7573.38
7423.76
7274.29
7124.94
6975.7
6826.57
6677.52
6528.55
6379.63
6230.77
6081.96
5933.19
5784.45
5635.74
5487.06
5338.42
5189.82
5041.24
4892.68
4744.15
4595.64
4447.13
4298.63
4150.12
4001.6
3853.07
3704.51
3555.93
3407.31
3258.65
3109.95
2961.2
2812.39
2663.51
2514.57
2365.55
2216.43
2067.22
1917.9
1768.45
1618.85
1469.09
1319.14
1168.97
1018.54
867.887
716.729
565.555
413.246
261.92
107.228
15.4716
0.17
-0.0326966
-0.215837
-0.415522
-0.604227
-0.795917
-0.986708
-1.17694
-1.36686
-1.55648
-1.74597
14640.4
14493.1
14345.7
14198.1
14050.3
13902.4
13754.3
13606
13457.6
13308.9
13160.1
13011
12861.8
12712.3
12562.6
12412.6
12262.4
12112
11961.3
11810.4
11659.3
11508
11356.5
11204.9
11053.1
10901.1
10749.1
10597.1
10444.9
10292.8
10140.7
9988.53
9836.44
9684.41
9532.46
9380.61
9228.87
9077.27
8925.82
8774.53
8623.42
8472.49
8321.75
8171.21
8020.86
7870.7
7720.74
7570.95
7421.33
7271.88
7122.56
6973.38
6824.32
6675.36
6526.49
6377.69
6228.96
6080.29
5931.66
5783.07
5634.52
5486
5337.5
5189.03
5040.59
4892.16
4743.75
4595.34
4446.93
4298.52
4150.11
4001.67
3853.22
3704.74
3556.23
3407.68
3259.09
3110.45
2961.76
2813.02
2664.2
2515.32
2366.36
2217.3
2068.15
1918.88
1769.48
1619.94
1470.23
1320.34
1170.23
1019.87
869.287
718.231
567.147
415.033
263.82
109.608
16.669
0.163857
-0.033878
-0.218436
-0.416268
-0.604799
-0.796218
-0.986784
-1.17686
-1.36669
-1.55624
-1.74568
14641.2
14493.9
14346.5
14198.8
14051.1
13903.1
13755
13606.7
13458.2
13309.5
13160.7
13011.6
12862.3
12712.8
12563.1
12413.1
12262.9
12112.5
11961.8
11810.9
11659.8
11508.5
11356.9
11205.2
11053.4
10901.4
10749.3
10597.1
10444.9
10292.6
10140.3
9988.01
9835.73
9683.51
9531.36
9379.31
9227.38
9075.59
8923.96
8772.51
8621.25
8470.19
8319.34
8168.71
8018.29
7868.08
7718.09
7568.3
7418.69
7269.27
7120.01
6970.9
6821.92
6673.06
6524.31
6375.64
6227.06
6078.53
5930.06
5781.63
5633.23
5484.87
5336.52
5188.2
5039.89
4891.6
4743.3
4595.01
4446.71
4298.41
4150.08
4001.74
3853.37
3704.97
3556.54
3408.07
3259.55
3110.99
2962.37
2813.69
2664.95
2516.13
2367.24
2218.25
2069.16
1919.97
1770.64
1621.17
1471.55
1321.73
1171.72
1021.46
870.984
720.071
569.112
417.228
266.124
112.353
18.0212
0.159132
-0.0353211
-0.221374
-0.417441
-0.606012
-0.797031
-0.987323
-1.17717
-1.36681
-1.55621
-1.74552
14642.1
14494.8
14347.4
14199.8
14052
13904
13755.9
13607.5
13459
13310.4
13161.5
13012.4
12863.1
12713.5
12563.8
12413.8
12263.6
12113.1
11962.5
11811.5
11660.4
11509
11357.5
11205.7
11053.8
10901.7
10749.5
10597.2
10444.8
10292.4
10139.9
9987.38
9834.9
9682.45
9530.08
9377.81
9225.67
9073.68
8921.85
8770.23
8618.81
8467.61
8316.65
8165.93
8015.44
7865.2
7715.18
7565.39
7415.82
7266.44
7117.25
6968.22
6819.35
6670.61
6521.99
6373.47
6225.04
6076.68
5928.37
5780.11
5631.88
5483.67
5335.49
5187.32
5039.16
4891
4742.83
4594.66
4446.48
4298.28
4150.05
4001.81
3853.53
3705.22
3556.87
3408.48
3260.04
3111.56
2963.01
2814.41
2665.75
2517.01
2368.19
2219.28
2070.28
1921.16
1771.93
1622.55
1473.02
1323.32
1173.42
1023.3
872.962
722.227
571.422
419.796
268.791
115.418
19.481
0.156203
-0.0361456
-0.225245
-0.419236
-0.607739
-0.798256
-0.988235
-1.17779
-1.36718
-1.55636
-1.74546
14643.2
14495.9
14348.4
14200.8
14053
13905
13756.9
13608.6
13460.1
13311.4
13162.5
13013.4
12864
12714.5
12564.7
12414.7
12264.5
12114
11963.3
11812.4
11661.2
11509.8
11358.1
11206.3
11054.3
10902.1
10749.8
10597.3
10444.7
10292.1
10139.4
9986.66
9833.93
9681.25
9528.63
9376.12
9223.74
9071.51
8919.48
8767.66
8616.07
8464.73
8313.65
8162.84
8012.29
7862
7711.98
7562.21
7412.67
7263.36
7114.25
6965.34
6816.58
6667.99
6519.52
6371.17
6222.91
6074.72
5926.59
5778.51
5630.45
5482.42
5334.4
5186.39
5038.38
4890.36
4742.34
4594.29
4446.23
4298.14
4150.02
4001.88
3853.69
3705.48
3557.22
3408.91
3260.56
3112.16
2963.7
2815.18
2666.6
2517.94
2369.21
2220.39
2071.48
1922.47
1773.33
1624.07
1474.66
1325.09
1175.33
1025.37
875.202
724.679
574.061
422.729
271.832
118.863
21.0932
0.152993
-0.0383502
-0.228602
-0.421222
-0.609844
-0.799832
-0.989459
-1.17867
-1.36775
-1.55665
-1.74547
14644.4
14497.1
14349.7
14202.1
14054.2
13906.3
13758.1
13609.8
13461.3
13312.6
13163.6
13014.5
12865.2
12715.6
12565.9
12415.8
12265.6
12115.1
11964.3
11813.3
11662.1
11510.6
11358.9
11207
11054.9
10902.6
10750.1
10597.4
10444.6
10291.8
10138.8
9985.83
9832.84
9679.88
9526.98
9374.19
9221.55
9069.07
8916.81
8764.78
8613
8461.51
8310.3
8159.39
8008.78
7858.47
7708.45
7558.7
7409.23
7260
7111
6962.2
6813.6
6665.17
6516.88
6368.71
6220.64
6072.65
5924.72
5776.82
5628.96
5481.11
5333.27
5185.43
5037.57
4889.71
4741.82
4593.91
4445.97
4298
4149.99
4001.95
3853.87
3705.75
3557.58
3409.37
3261.1
3112.79
2964.42
2815.99
2667.49
2518.93
2370.29
2221.58
2072.77
1923.86
1774.85
1625.71
1476.44
1327.02
1177.43
1027.65
877.683
727.405
577.015
426.023
275.284
122.804
22.987
0.148822
-0.0418658
-0.232219
-0.423693
-0.612331
-0.801742
-0.990955
-1.17977
-1.36849
-1.55705
-1.74555
14645.8
14498.5
14351.1
14203.4
14055.6
13907.7
13759.5
13611.2
13462.7
13313.9
13165
13015.9
12866.6
12717
12567.2
12417.2
12266.9
12116.4
11965.6
11814.5
11663.2
11511.7
11359.9
11207.8
11055.6
10903.1
10750.4
10597.5
10444.5
10291.4
10138.2
9984.91
9831.61
9678.33
9525.12
9372.02
9219.07
9066.31
8913.79
8761.52
8609.55
8457.89
8306.55
8155.55
8004.88
7854.55
7704.54
7554.84
7405.44
7256.31
7107.44
6958.8
6810.38
6662.14
6514.05
6366.09
6218.24
6070.46
5922.74
5775.06
5627.4
5479.74
5332.09
5184.42
5036.74
4889.03
4741.29
4593.52
4445.71
4297.86
4149.97
4002.03
3854.06
3706.03
3557.96
3409.84
3261.67
3113.45
2965.17
2816.83
2668.44
2519.97
2371.44
2222.83
2074.13
1925.35
1776.46
1627.47
1478.35
1329.09
1179.69
1030.12
880.382
730.382
580.264
429.665
279.179
127.338
25.2763
0.143385
-0.0464944
-0.236424
-0.426639
-0.615199
-0.803963
-0.992685
-1.18105
-1.36935
-1.55753
-1.74567
14647.4
14500.1
14352.6
14205
14057.2
13909.2
13761.1
13612.7
13464.2
13315.5
13166.6
13017.5
12868.1
12718.6
12568.8
12418.7
12268.4
12117.8
11967
11815.9
11664.5
11512.9
11361
11208.8
11056.4
10903.7
10750.8
10597.7
10444.4
10291
10137.5
9983.87
9830.22
9676.59
9523.02
9369.56
9216.27
9063.2
8910.38
8757.85
8605.66
8453.81
8302.34
8151.24
8000.52
7850.18
7700.2
7550.57
7401.27
7252.27
7103.56
6955.11
6806.89
6658.87
6511.02
6363.3
6215.68
6068.14
5920.66
5773.2
5625.76
5478.32
5330.87
5183.39
5035.88
4888.34
4740.75
4593.12
4445.44
4297.72
4149.95
4002.13
3854.26
3706.34
3558.36
3410.34
3262.27
3114.14
2965.96
2817.72
2669.42
2521.06
2372.64
2224.14
2075.57
1926.91
1778.17
1629.32
1480.37
1331.3
1182.1
1032.76
883.27
733.575
583.774
433.613
283.493
132.44
27.978
0.13598
-0.051889
-0.241332
-0.430062
-0.618428
-0.806409
-0.994592
-1.18245
-1.3703
-1.55809
-1.74583
14649.1
14501.8
14354.3
14206.7
14058.9
13910.9
13762.8
13614.5
13466
13317.3
13168.4
13019.3
12869.9
12720.4
12570.5
12420.5
12270.1
12119.5
11968.7
11817.5
11666
11514.3
11362.3
11209.9
11057.3
10904.5
10751.3
10598
10444.4
10290.6
10136.7
9982.73
9828.68
9674.63
9520.65
9366.79
9213.11
9059.66
8906.51
8753.7
8601.26
8449.22
8297.6
8146.41
7995.65
7845.31
7695.38
7545.83
7396.66
7247.83
7099.3
6951.07
6803.1
6655.34
6507.76
6360.31
6212.97
6065.7
5918.47
5771.27
5624.07
5476.85
5329.61
5182.33
5035.01
4887.64
4740.21
4592.73
4445.19
4297.6
4149.95
4002.24
3854.48
3706.66
3558.79
3410.86
3262.89
3114.86
2966.77
2818.64
2670.44
2522.19
2373.88
2225.51
2077.06
1928.54
1779.95
1631.26
1482.49
1333.61
1184.62
1035.52
886.31
736.94
587.489
437.8
288.143
137.95
31.0209
0.126272
-0.0576358
-0.247209
-0.434026
-0.621928
-0.809017
-0.996621
-1.18393
-1.37132
-1.55868
-1.74602
14651
14503.7
14356.2
14208.6
14060.8
13912.8
13764.7
13616.4
13467.9
13319.2
13170.4
13021.3
12871.9
12722.4
12572.5
12422.5
12272.1
12121.5
11970.5
11819.3
11667.8
11515.9
11363.7
11211.3
11058.4
10905.3
10751.9
10598.3
10444.3
10290.2
10135.9
9981.46
9826.96
9672.44
9517.98
9363.65
9209.52
9055.66
8902.13
8748.99
8596.27
8444.02
8292.25
8140.97
7990.18
7839.86
7690
7540.57
7391.56
7242.92
7094.64
6946.68
6798.99
6651.53
6504.25
6357.12
6210.09
6063.12
5916.18
5769.26
5622.32
5475.35
5328.33
5181.26
5034.13
4886.94
4739.68
4592.35
4444.95
4297.49
4149.96
4002.37
3854.72
3707
3559.23
3411.41
3263.53
3115.6
2967.62
2819.58
2671.5
2523.36
2375.17
2226.92
2078.61
1930.23
1781.79
1633.27
1484.68
1336
1187.24
1038.39
889.457
740.421
591.336
442.121
292.977
143.601
34.2168
0.115424
-0.0635903
-0.253708
-0.437872
-0.625649
-0.811592
-0.998718
-1.18544
-1.37237
-1.5593
-1.74622
14653
14505.7
14358.2
14210.6
14062.9
13914.9
13766.8
13618.5
13470.1
13321.4
13172.5
13023.5
12874.1
12724.6
12574.8
12424.7
12274.3
12123.7
11972.7
11821.4
11669.7
11517.8
11365.4
11212.8
11059.7
10906.4
10752.7
10598.6
10444.3
10289.8
10135
9980.07
9825.04
9669.98
9514.97
9360.1
9205.44
9051.1
8897.14
8743.62
8590.61
8438.13
8286.2
8134.83
7984.02
7833.74
7683.98
7534.71
7385.9
7237.5
7089.51
6941.87
6794.52
6647.41
6500.5
6353.72
6207.04
6060.41
5913.8
5767.17
5620.52
5473.81
5327.04
5180.19
5033.26
4886.26
4739.16
4591.99
4444.74
4297.41
4150
4002.52
3854.98
3707.37
3559.7
3411.98
3264.2
3116.37
2968.49
2820.56
2672.58
2524.56
2376.49
2228.37
2080.19
1931.96
1783.68
1635.34
1486.93
1338.46
1189.92
1041.33
892.67
743.956
595.232
446.451
297.823
149.106
37.3369
0.103744
-0.0687394
-0.260124
-0.44117
-0.629338
-0.8139
-1.00081
-1.18691
-1.37342
-1.55991
-1.74643
14655.2
14507.9
14360.4
14212.8
14065.1
13917.2
13769.1
13620.8
13472.4
13323.8
13174.9
13025.9
12876.6
12727
12577.2
12427.2
12276.8
12126.1
11975.1
11823.7
11672
11519.9
11367.4
11214.5
11061.2
10907.6
10753.5
10599.1
10444.4
10289.4
10134
9978.54
9822.9
9667.21
9511.56
9356.05
9200.8
9045.89
8891.42
8737.49
8584.14
8431.41
8279.32
8127.87
7977.06
7826.86
7677.24
7528.17
7379.6
7231.52
7083.87
6936.61
6789.66
6642.96
6496.46
6350.1
6203.82
6057.57
5911.32
5765.03
5618.69
5472.26
5325.74
5179.13
5032.42
4885.6
4738.68
4591.66
4444.55
4297.35
4150.07
4002.71
3855.27
3707.76
3560.2
3412.57
3264.89
3117.16
2969.38
2821.56
2673.69
2525.78
2377.83
2229.84
2081.81
1933.73
1785.61
1637.44
1489.22
1340.96
1192.64
1044.29
895.904
747.486
599.102
450.67
302.509
154.107
40.1735
0.0952204
-0.0727263
-0.265372
-0.444012
-0.632653
-0.815951
-1.00283
-1.18826
-1.37442
-1.56049
-1.74663
14657.5
14510.2
14362.8
14215.2
14067.5
13919.6
13771.5
13623.3
13474.9
13326.3
13177.5
13028.5
12879.2
12729.7
12579.9
12429.9
12279.5
12128.8
11977.7
11826.3
11674.5
11522.2
11369.6
11216.5
11063
10909
10754.6
10599.8
10444.5
10288.9
10133
9976.87
9820.53
9664.1
9507.7
9351.45
9195.47
9039.9
8884.86
8730.44
8576.7
8423.7
8271.45
8119.94
7969.16
7819.08
7669.65
7520.83
7372.57
7224.87
7077.65
6930.84
6784.36
6638.15
6492.14
6346.25
6200.43
6054.62
5908.77
5762.85
5616.83
5470.71
5324.47
5178.1
5031.6
4884.98
4738.23
4591.37
4444.41
4297.34
4150.17
4002.92
3855.59
3708.19
3560.72
3413.19
3265.6
3117.97
2970.29
2822.58
2674.82
2527.03
2379.2
2231.34
2083.45
1935.52
1787.56
1639.56
1491.53
1343.47
1195.38
1047.26
899.127
750.969
602.894
454.712
306.925
158.697
42.6426
0.091059
-0.0754552
-0.268887
-0.446251
-0.635302
-0.817776
-1.00457
-1.18952
-1.37535
-1.56104
-1.74682
14660
14512.7
14365.2
14217.7
14070
13922.1
13774.1
13625.9
13477.6
13329
13180.3
13031.3
12882.1
12732.6
12582.9
12432.8
12282.5
12131.8
11980.7
11829.2
11677.2
11524.9
11372.1
11218.7
11064.9
10910.6
10755.8
10600.5
10444.8
10288.6
10132
9975.04
9817.88
9660.6
9503.31
9346.18
9189.34
9032.97
8877.24
8722.23
8568.05
8414.75
8262.34
8110.8
7960.11
7810.22
7661.07
7512.6
7364.78
7217.53
7070.83
6924.55
6778.63
6632.97
6487.52
6342.18
6196.89
6051.56
5906.16
5760.64
5614.98
5469.18
5323.21
5177.1
5030.83
4884.41
4737.84
4591.13
4444.31
4297.37
4150.32
4003.17
3855.95
3708.64
3561.26
3413.83
3266.34
3118.8
2971.22
2823.61
2675.96
2528.28
2380.58
2232.85
2085.09
1937.31
1789.51
1641.69
1493.85
1345.99
1198.11
1050.22
902.32
754.385
606.587
458.596
311.044
162.896
44.7832
0.0907379
-0.0774923
-0.270763
-0.448308
-0.637317
-0.819487
-1.0061
-1.19069
-1.37622
-1.56157
-1.74699
14662.6
14515.3
14367.9
14220.3
14072.7
13924.9
13776.9
13628.8
13480.5
13332
13183.3
13034.4
12885.2
12735.8
12586.1
12436.1
12285.7
12135
11983.9
11832.4
11680.4
11527.9
11374.9
11221.3
11067.2
10912.5
10757.3
10601.5
10445.1
10288.2
10130.8
9973.03
9814.93
9656.63
9498.29
9340.07
9182.18
9024.82
8868.24
8712.6
8557.94
8404.32
8251.74
8100.19
7949.63
7799.99
7651.21
7503.19
7355.91
7209.3
7063.25
6917.64
6772.4
6627.43
6482.64
6337.95
6193.25
6048.45
5903.51
5758.42
5613.15
5467.68
5322.02
5176.17
5030.12
4883.9
4737.51
4590.96
4444.27
4297.45
4150.51
4003.47
3856.34
3709.12
3561.83
3414.49
3267.09
3119.64
2972.16
2824.65
2677.1
2529.54
2381.95
2234.35
2086.73
1939.11
1791.47
1643.82
1496.16
1348.49
1200.82
1053.14
905.472
757.738
610.182
462.343
314.94
166.815
46.6873
0.0918178
-0.0793301
-0.271982
-0.450327
-0.638825
-0.82115
-1.00742
-1.19181
-1.37703
-1.56207
-1.74717
14665.3
14518
14370.6
14223.1
14075.5
13927.7
13779.8
13631.7
13483.5
13335.1
13186.5
13037.6
12888.6
12739.2
12589.6
12439.6
12289.3
12138.6
11987.5
11835.9
11683.8
11531.2
11378
11224.2
11069.8
10914.8
10759
10602.6
10445.6
10287.9
10129.6
9970.84
9811.62
9652.1
9492.45
9332.89
9173.77
9015.32
8857.73
8701.23
8545.96
8391.96
8239.22
8087.68
7937.3
7788.01
7639.71
7492.32
7345.76
7199.95
7054.71
6909.94
6765.53
6621.4
6477.43
6333.51
6189.5
6045.33
5900.93
5756.3
5611.42
5466.29
5320.92
5175.33
5029.51
4883.49
4737.26
4590.85
4444.29
4297.59
4150.76
4003.81
3856.76
3709.63
3562.43
3415.17
3267.85
3120.49
2973.1
2825.68
2678.24
2530.79
2383.32
2235.84
2088.36
1940.88
1793.4
1645.92
1498.44
1350.97
1203.5
1056.04
908.587
761.045
613.708
466.008
318.705
170.599
48.4572
0.0928113
-0.0812665
-0.272884
-0.452341
-0.640114
-0.822788
-1.0086
-1.19291
-1.3778
-1.56255
-1.74734
14668.2
14520.9
14373.5
14226
14078.4
13930.7
13782.9
13634.9
13486.7
13338.4
13189.9
13041.1
12892.1
12742.9
12593.3
12443.4
12293.2
12142.5
11991.4
11839.8
11687.7
11534.9
11381.6
11227.5
11072.8
10917.3
10761.1
10604.1
10446.3
10287.7
10128.4
9968.41
9807.82
9646.77
9485.57
9324.55
9163.92
9004.04
8845.19
8687.68
8531.73
8377.33
8224.42
8072.94
7922.84
7774.03
7626.4
7479.83
7334.23
7189.37
7045.12
6901.33
6757.9
6614.75
6471.78
6328.81
6185.64
6042.18
5898.39
5754.27
5609.82
5465.05
5319.98
5174.63
5029.02
4883.18
4737.11
4590.84
4444.4
4297.8
4151.06
4004.2
3857.23
3710.18
3563.05
3415.86
3268.62
3121.35
2974.04
2826.71
2679.37
2532.02
2384.66
2237.31
2089.96
1942.63
1795.3
1647.99
1500.7
1353.42
1206.15
1058.9
911.67
764.327
617.206
469.655
322.456
174.423
50.249
0.0934767
-0.0835001
-0.273545
-0.454368
-0.64132
-0.824414
-1.00972
-1.194
-1.37856
-1.56304
-1.74752
14671.1
14523.8
14376.5
14229
14081.5
13933.8
13786.1
13638.2
13490.1
13341.9
13193.4
13044.8
12895.9
12746.8
12597.3
12447.6
12297.4
12146.8
11995.7
11844.1
11691.9
11539.1
11385.5
11231.3
11076.2
10920.3
10763.5
10605.8
10447.1
10287.6
10127
9965.59
9803.31
9640.55
9477.54
9314.6
9152.09
8990.49
8830.27
8671.75
8515.12
8360.31
8207.21
8055.8
7906.02
7757.82
7611.04
7465.54
7321.09
7177.42
7034.36
6891.76
6749.48
6607.48
6465.73
6323.95
6181.76
6039.08
5895.93
5752.34
5608.34
5463.95
5319.2
5174.11
5028.72
4883.03
4737.09
4590.93
4444.6
4298.08
4151.43
4004.64
3857.74
3710.75
3563.69
3416.57
3269.4
3122.19
2974.97
2827.72
2680.47
2533.22
2385.98
2238.74
2091.53
1944.33
1797.16
1650.02
1502.9
1355.82
1208.76
1061.72
914.724
767.603
620.711
473.354
326.313
178.458
52.2112
0.0940134
-0.0862019
-0.273923
-0.456442
-0.642479
-0.826032
-1.01089
-1.19508
-1.37935
-1.56354
-1.74771
14674.2
14526.9
14379.6
14232.2
14084.7
13937.1
13789.4
13641.6
13493.6
13345.5
13197.2
13048.7
12899.9
12750.9
12601.6
12452
12301.9
12151.4
12000.4
11848.8
11696.6
11543.7
11390
11235.4
11080
10923.6
10766.2
10607.8
10448.2
10287.5
10125.4
9962.19
9798.03
9633.18
9467.9
9302.7
9138.13
8974.69
8812.89
8653.22
8495.93
8340.72
8187.43
8036.08
7886.67
7739.17
7593.45
7449.23
7306.12
7163.89
7022.3
6881.17
6740.29
6599.62
6459.38
6319.1
6177.98
6036.08
5893.57
5750.53
5606.99
5462.99
5318.57
5173.75
5028.56
4883.06
4737.25
4591.18
4444.91
4298.46
4151.86
4005.13
3858.29
3711.35
3564.34
3417.28
3270.18
3123.04
2975.88
2828.72
2681.55
2534.39
2387.25
2240.13
2093.04
1945.98
1798.96
1651.99
1505.05
1358.17
1211.32
1064.51
917.749
770.885
624.252
477.151
330.386
182.831
54.4683
0.0939751
-0.0895937
-0.274267
-0.458755
-0.643591
-0.827748
-1.01219
-1.19623
-1.38021
-1.56409
-1.74792
14677.3
14530
14382.7
14235.4
14087.9
13940.4
13792.8
13645.1
13497.2
13349.2
13201.1
13052.7
12904.1
12755.3
12606.2
12456.7
12306.8
12156.4
12005.5
11854
11701.7
11548.7
11394.9
11240.1
11084.4
10927.5
10769.5
10610.2
10449.5
10287.2
10123.3
9958.17
9791.77
9624.42
9456.64
9288.89
9121.89
8956.29
8792.72
8631.86
8474.13
8318.67
8165.22
8013.94
7864.92
7718.22
7573.69
7430.85
7289.23
7148.56
7008.61
6869.13
6729.89
6590.8
6452.61
6314.51
6174.56
6033.41
5891.49
5748.94
5605.82
5462.18
5318.07
5173.52
5028.56
4883.22
4737.54
4591.57
4445.37
4298.97
4152.39
4005.69
3858.88
3711.98
3565.02
3418
3270.95
3123.87
2976.77
2829.68
2682.59
2535.52
2388.47
2241.46
2094.49
1947.57
1800.7
1653.88
1507.13
1360.45
1213.82
1067.25
920.741
774.168
627.837
481.044
334.736
187.577
57.096
0.0944332
-0.0939
-0.273311
-0.461333
-0.644564
-0.829605
-1.01366
-1.19752
-1.38119
-1.56472
-1.74817
14680.4
14533.2
14385.9
14238.6
14091.3
13943.8
13796.3
13648.7
13501
13353.1
13205.1
13056.9
12908.5
12759.9
12610.9
12461.6
12311.9
12161.7
12011
11859.6
11707.4
11554.4
11400.4
11245.4
11089.3
10931.9
10773.1
10612.9
10450.7
10286.6
10120.9
9953.51
9784.61
9614.47
9443.66
9272.91
9103.06
8935.01
8769.45
8607.51
8449.95
8294.62
8141.09
7989.9
7841.36
7695.6
7552.38
7411.03
7270.97
7131.95
6993.65
6855.66
6717.52
6578.79
6445.18
6312.23
6172.63
6031.51
5889.86
5747.68
5604.94
5461.64
5317.81
5173.49
5028.71
4883.52
4737.95
4592.07
4445.93
4299.57
4153.02
4006.33
3859.53
3712.64
3565.71
3418.72
3271.71
3124.68
2977.64
2830.61
2683.59
2536.6
2389.64
2242.73
2095.87
1949.08
1802.35
1655.7
1509.13
1362.64
1216.24
1069.92
923.681
777.434
631.442
485.022
339.326
192.549
60.1128
0.097715
-0.0996847
-0.271974
-0.465295
-0.645601
-0.832175
-1.01535
-1.19903