/*--------------------------------*- C++ -*----------------------------------*\
| =========                 |                                                 |
| \\      /  F ield         | OpenFOAM: The Open Source CFD Toolbox           |
|  \\    /   O peration     | Version:  v2106                                 |
|   \\  /    A nd           | Website:  www.openfoam.com                      |
|    \\/     M anipulation  |                                                 |
\*---------------------------------------------------------------------------*/
FoamFile
{
    version     2.0;
    format      ascii;
    arch        "LSB;label=32;scalar=64";
    class       volScalarField;
    location    "1.8";
    object      p_rgh;
}
// * * * * * * * * * * * * * * * * * * * * * * * * * * * * * * * * * * * * * //

dimensions      [1 -1 -2 0 0 0 0];

internalField   nonuniform List<scalar> 
29678
(
-0.277328
-0.287464
-0.306942
-0.330017
-0.362508
-0.409909
-0.467681
-0.536497
-0.61954
-0.719728
-0.841145
-0.990151
-1.1773
-1.42163
-1.7607
-2.27509
-3.148
-4.79032
-7.97575
-13.9401
-24.3826
-46.1518
-60.1278
-67.222
-72.2856
-76.4796
-80.2057
-83.592
-86.7886
-89.8441
-92.8192
-95.7174
-98.5477
-101.321
-104.036
-106.7
-109.31
-111.873
-114.375
-116.799
-119.154
-121.437
-123.633
-125.738
-127.754
-129.663
-131.474
-133.199
-134.831
-136.36
-137.794
-139.14
-140.406
-141.617
-142.826
-144.138
-145.771
-148.252
-152.309
-159.633
-169.644
-175.771
-178.877
-180.735
-182.019
-183.037
-183.909
-186.518
-188.582
-190.464
-191.975
-193.544
-195.604
-197.573
-199.338
-200.96
-202.508
-203.998
-206.136
-209.008
-211.621
-214.325
-215.783
-217.242
-218.792
-220.671
-222.319
-224.944
-226.429
-228.451
-230.34
-232.007
-233.654
-234.994
-236.191
-237.481
-239.013
-238.699
-50.0622
-0.00816879
-0.164272
-0.0484837
-0.0736351
-0.0407059
-0.0415568
-0.0316612
-0.028818
-0.0242143
-0.0223746
-0.0203852
-0.782784
-0.803809
-0.845716
-0.908616
-1.01155
-1.15474
-1.32484
-1.52812
-1.77214
-2.06468
-2.41623
-2.84176
-3.36331
-4.01412
-4.84458
-5.92795
-7.35612
-9.21745
-11.6747
-15.3943
-22.0942
-39.5159
-54.3275
-62.5455
-68.4023
-73.1934
-77.4044
-81.215
-84.7751
-88.1547
-91.4039
-94.544
-97.5902
-100.557
-103.452
-106.279
-109.042
-111.743
-114.376
-116.936
-119.427
-121.845
-124.174
-126.406
-128.543
-130.579
-132.521
-134.381
-136.159
-137.854
-139.476
-141.041
-142.565
-144.077
-145.626
-147.29
-149.2
-151.495
-154.692
-160.88
-170.868
-175.411
-178.378
-180.425
-181.932
-183.097
-184.043
-186.51
-188.677
-190.626
-192.187
-193.82
-195.866
-197.838
-199.614
-201.243
-202.767
-204.192
-206.113
-208.648
-211.237
-214.047
-215.651
-217.274
-218.934
-220.866
-222.336
-225.003
-226.723
-228.797
-230.722
-232.489
-234.078
-235.573
-236.946
-238.218
-239.16
-240.077
-49.8194
-0.099856
-0.132759
-0.0474274
-0.0522141
-0.0304532
-0.029178
-0.022871
-0.0209271
-0.0182728
-0.0176462
-0.01697
-1.26247
-1.29597
-1.36415
-1.47684
-1.64987
-1.87916
-2.1561
-2.48915
-2.88831
-3.36509
-3.93491
-4.619
-5.44728
-6.46262
-7.72744
-9.33431
-11.4261
-14.2462
-18.26
-24.1552
-32.2999
-42.4958
-51.8013
-59.1194
-65.1234
-70.2814
-74.8657
-79.0416
-82.926
-86.5953
-90.1012
-93.4746
-96.7364
-99.9019
-102.98
-105.978
-108.897
-111.739
-114.503
-117.189
-119.799
-122.327
-124.761
-127.094
-129.327
-131.46
-133.501
-135.459
-137.337
-139.143
-140.889
-142.594
-144.286
-146.005
-147.815
-149.816
-152.159
-155.071
-159.047
-163.947
-169.282
-173.244
-176.226
-178.601
-180.59
-182.369
-184.105
-186.083
-188.022
-189.858
-191.61
-193.363
-195.211
-197.027
-198.802
-200.552
-202.313
-204.133
-206.149
-208.373
-210.586
-212.702
-214.668
-216.537
-218.414
-220.382
-222.371
-224.583
-226.611
-228.704
-230.775
-232.768
-234.665
-236.47
-238.107
-239.567
-240.473
-240.735
-54.5935
-0.0621923
-0.0558747
-0.0340867
-0.0322424
-0.0221759
-0.0197144
-0.0167088
-0.0153999
-0.0146251
-0.0145476
-0.0149589
-1.70116
-1.74712
-1.84192
-2.00271
-2.24247
-2.5534
-2.93188
-3.38773
-3.93251
-4.58033
-5.34976
-6.26559
-7.36142
-8.68328
-10.2948
-12.284
-14.773
-17.9275
-21.941
-26.9716
-33.2253
-40.8924
-48.9486
-56.1072
-62.299
-67.7411
-72.6292
-77.1041
-81.2691
-85.1978
-88.9417
-92.535
-96.0012
-99.3565
-102.612
-105.774
-108.847
-111.832
-114.731
-117.544
-120.271
-122.907
-125.445
-127.881
-130.216
-132.453
-134.599
-136.662
-138.651
-140.576
-142.453
-144.306
-146.162
-148.065
-150.069
-152.251
-154.705
-157.535
-160.795
-164.601
-168.872
-172.625
-175.712
-178.262
-180.425
-182.351
-184.175
-186.119
-188.051
-189.911
-191.697
-193.474
-195.293
-197.107
-198.887
-200.64
-202.394
-204.191
-206.121
-208.185
-210.324
-212.473
-214.478
-216.42
-218.362
-220.359
-222.348
-224.554
-226.69
-228.857
-231.036
-233.198
-235.323
-237.395
-239.341
-241.245
-242.713
-244.458
-50.0398
-0.0410124
-0.0331629
-0.0191048
-0.0164289
-0.0115683
-0.0102696
-0.00931538
-0.00927435
-0.00972719
-0.0106638
-0.011984
-2.0839
-2.14175
-2.26288
-2.46817
-2.76916
-3.15662
-3.62981
-4.19928
-4.87751
-5.68
-6.62677
-7.74376
-9.06483
-10.6343
-12.5103
-14.7679
-17.5021
-20.827
-24.8666
-29.7323
-35.5278
-42.1461
-48.9198
-55.2569
-61.039
-66.3281
-71.2122
-75.7697
-80.0648
-84.1474
-88.0553
-91.8157
-95.448
-98.966
-102.379
-105.692
-108.909
-112.032
-115.061
-117.997
-120.839
-123.584
-126.228
-128.768
-131.204
-133.542
-135.786
-137.947
-140.034
-142.061
-144.044
-146.005
-147.973
-149.985
-152.086
-154.33
-156.783
-159.508
-162.551
-165.914
-169.378
-172.578
-175.383
-177.818
-179.998
-182.005
-183.933
-185.839
-187.706
-189.524
-191.305
-193.072
-194.842
-196.609
-198.376
-200.156
-201.966
-203.83
-205.771
-207.781
-209.82
-211.851
-213.857
-215.863
-217.9
-219.995
-222.153
-224.396
-226.669
-228.981
-231.337
-233.723
-236.133
-238.575
-240.941
-243.55
-245.589
-248.332
-45.1457
-0.0155439
-0.00680244
-0.00160503
-0.00206445
-0.00105984
-0.001618
-0.00251919
-0.00383144
-0.00543628
-0.00730394
-0.00941159
-2.39653
-2.46542
-2.61173
-2.85845
-3.21517
-3.6727
-4.23226
-4.90461
-5.70248
-6.64171
-7.74234
-9.02961
-10.5353
-12.2992
-14.3708
-16.8099
-19.6856
-23.0746
-27.0447
-31.6434
-36.8625
-42.5683
-48.4666
-54.2483
-59.7548
-64.9516
-69.8569
-74.5041
-78.929
-83.1636
-87.2344
-91.162
-94.9617
-98.6446
-102.218
-105.686
-109.052
-112.317
-115.482
-118.546
-121.507
-124.365
-127.116
-129.759
-132.295
-134.729
-137.066
-139.317
-141.492
-143.605
-145.673
-147.717
-149.764
-151.845
-153.995
-156.255
-158.665
-161.256
-164.035
-166.962
-169.936
-172.796
-175.43
-177.817
-179.994
-182.019
-183.951
-185.833
-187.675
-189.478
-191.249
-193.006
-194.761
-196.516
-198.273
-200.041
-201.833
-203.666
-205.554
-207.499
-209.485
-211.498
-213.525
-215.571
-217.653
-219.789
-221.988
-224.271
-226.623
-229.049
-231.553
-234.141
-236.822
-239.646
-242.454
-245.777
-248.516
-253.142
-38.8436
0.0225664
0.013395
0.016131
0.0106832
0.00890374
0.00639152
0.00386911
0.00129222
-0.00135521
-0.00411046
-0.00697631
-2.62587
-2.70481
-2.87456
-3.15949
-3.56664
-4.08728
-4.7242
-5.48801
-6.39115
-7.44898
-8.68058
-10.1093
-11.7635
-13.6772
-15.8909
-18.45
-21.403
-24.7975
-28.6696
-33.0315
-37.8504
-43.0257
-48.3888
-53.7604
-59.0137
-64.0844
-68.9552
-73.6321
-78.131
-82.4696
-86.6638
-90.7271
-94.6696
-98.4983
-102.218
-105.831
-109.338
-112.739
-116.035
-119.223
-122.302
-125.27
-128.126
-130.868
-133.499
-136.023
-138.446
-140.777
-143.028
-145.212
-147.346
-149.45
-151.546
-153.66
-155.821
-158.056
-160.39
-162.836
-165.394
-168.033
-170.688
-173.268
-175.698
-177.958
-180.066
-182.053
-183.954
-185.798
-187.596
-189.358
-191.093
-192.814
-194.531
-196.251
-197.98
-199.728
-201.505
-203.323
-205.189
-207.102
-209.057
-211.047
-213.07
-215.133
-217.25
-219.436
-221.702
-224.059
-226.509
-229.065
-231.739
-234.546
-237.499
-240.715
-243.945
-248.007
-251.502
-257.643
-33.3676
0.0535259
0.0298907
0.0315653
0.0215881
0.0176998
0.0134384
0.00950321
0.00579777
0.00221813
-0.00132734
-0.00487777
-2.75982
-2.84784
-3.03896
-3.35859
-3.81093
-4.38767
-5.09286
-5.93674
-6.93106
-8.09021
-9.43167
-10.9763
-12.7484
-14.7765
-17.0922
-19.7288
-22.72
-26.0944
-29.8685
-34.0386
-38.5694
-43.3877
-48.3864
-53.4498
-58.4837
-63.4266
-68.2474
-72.9353
-77.4903
-81.9175
-86.2232
-90.4133
-94.4922
-98.4628
-102.327
-106.084
-109.733
-113.273
-116.701
-120.015
-123.214
-126.294
-129.254
-132.095
-134.818
-137.427
-139.928
-142.33
-144.646
-146.887
-149.069
-151.211
-153.331
-155.452
-157.595
-159.78
-162.024
-164.334
-166.705
-169.116
-171.522
-173.871
-176.12
-178.251
-180.269
-182.191
-184.038
-185.829
-187.577
-189.294
-190.988
-192.671
-194.352
-196.038
-197.737
-199.458
-201.209
-202.998
-204.831
-206.71
-208.636
-210.607
-212.627
-214.701
-216.841
-219.06
-221.369
-223.783
-226.311
-228.968
-231.776
-234.759
-237.93
-241.471
-245.044
-249.689
-253.609
-261.069
-29.4904
0.0713609
0.0442996
0.0437436
0.0304214
0.0250874
0.0194053
0.0143099
0.00966035
0.0052838
0.00105304
-0.00310712
-2.78747
-2.88363
-3.09401
-3.44455
-3.9369
-4.56293
-5.32765
-6.2407
-7.31298
-8.55759
-9.99016
-11.6287
-13.4939
-15.6087
-17.9978
-20.6852
-23.6935
-27.0391
-30.7282
-34.7505
-39.0746
-43.6466
-48.3934
-53.2358
-58.1034
-62.9432
-67.7207
-72.4161
-77.0193
-81.5262
-85.935
-90.245
-94.4555
-98.565
-102.571
-106.472
-110.264
-113.942
-117.504
-120.946
-124.264
-127.456
-130.521
-133.457
-136.267
-138.955
-141.528
-143.992
-146.36
-148.644
-150.858
-153.018
-155.143
-157.249
-159.355
-161.477
-163.625
-165.805
-168.012
-170.228
-172.43
-174.586
-176.67
-178.668
-180.581
-182.417
-184.191
-185.917
-187.605
-189.266
-190.91
-192.546
-194.182
-195.826
-197.487
-199.171
-200.886
-202.64
-204.437
-206.282
-208.177
-210.126
-212.133
-214.206
-216.356
-218.595
-220.936
-223.393
-225.984
-228.726
-231.645
-234.776
-238.122
-241.918
-245.743
-250.794
-254.975
-263.173
-27.3359
0.0821694
0.0534304
0.0524529
0.0369203
0.0309159
0.0241784
0.0182004
0.0128137
0.00779512
0.00300524
-0.00166327
-2.69906
-2.80252
-3.03
-3.40766
-3.93496
-4.60383
-5.41984
-6.39198
-7.53017
-8.84617
-10.3537
-12.0682
-14.0068
-16.1881
-18.6307
-21.3522
-24.3674
-27.6853
-31.3064
-35.2187
-39.3961
-43.7979
-48.3715
-53.0601
-57.8098
-62.5761
-67.3254
-72.0341
-76.6862
-81.2711
-85.7808
-90.209
-94.5503
-98.799
-102.949
-106.996
-110.932
-114.752
-118.45
-122.021
-125.461
-128.765
-131.933
-134.963
-137.858
-140.62
-143.255
-145.772
-148.181
-150.494
-152.725
-154.888
-156.999
-159.074
-161.129
-163.175
-165.222
-167.275
-169.329
-171.377
-173.402
-175.386
-177.315
-179.179
-180.978
-182.718
-184.407
-186.055
-187.673
-189.27
-190.855
-192.435
-194.019
-195.614
-197.228
-198.869
-200.542
-202.254
-204.011
-205.818
-207.68
-209.601
-211.589
-213.651
-215.798
-218.043
-220.4
-222.885
-225.518
-228.318
-231.317
-234.551
-238.016
-241.981
-245.966
-251.244
-255.548
-263.981
-26.5995
0.0868879
0.0582957
0.0580139
0.0411765
0.0351599
0.027734
0.02116
0.0152515
0.00975615
0.00454199
-0.000522948
-2.48597
-2.596
-2.83841
-3.23951
-3.79692
-4.50264
-5.3624
-6.38449
-7.57789
-8.95306
-10.522
-12.2977
-14.2944
-16.5271
-19.0099
-21.7556
-24.7741
-28.0699
-31.6406
-35.4749
-39.5512
-43.8382
-48.2968
-52.8841
-57.5581
-62.2813
-67.0226
-71.7572
-76.4659
-81.1335
-85.7476
-90.2974
-94.773
-99.1647
-103.463
-107.66
-111.745
-115.711
-119.549
-123.253
-126.817
-130.236
-133.507
-136.629
-139.604
-142.434
-145.126
-147.687
-150.126
-152.456
-154.689
-156.84
-158.923
-160.952
-162.942
-164.904
-166.845
-168.772
-170.682
-172.572
-174.435
-176.261
-178.042
-179.772
-181.452
-183.085
-184.679
-186.242
-187.781
-189.305
-190.821
-192.338
-193.862
-195.401
-196.962
-198.551
-200.176
-201.841
-203.553
-205.317
-207.14
-209.027
-210.986
-213.026
-215.158
-217.394
-219.751
-222.244
-224.895
-227.725
-230.766
-234.058
-237.585
-241.634
-245.696
-251.044
-255.371
-263.693
-26.9471
0.0870277
0.0601161
0.060923
0.0435617
0.0378904
0.0301163
0.0232174
0.0169973
0.0111907
0.00569041
0.000348042
-2.14088
-2.25682
-2.51204
-2.93303
-3.51601
-4.25305
-5.14968
-6.2135
-7.45261
-8.87633
-10.4951
-12.3201
-14.3631
-16.6362
-19.1505
-21.9154
-24.9374
-28.2186
-31.7557
-35.5386
-39.5496
-43.7643
-48.1526
-52.6811
-57.316
-62.0255
-66.7813
-71.5586
-76.3366
-81.0971
-85.8242
-90.5032
-95.1204
-99.6625
-104.117
-108.471
-112.712
-116.83
-120.815
-124.656
-128.348
-131.883
-135.258
-138.471
-141.523
-144.417
-147.158
-149.753
-152.212
-154.547
-156.769
-158.894
-160.934
-162.905
-164.818
-166.686
-168.516
-170.314
-172.081
-173.821
-175.53
-177.204
-178.839
-180.434
-181.991
-183.511
-185.002
-186.47
-187.922
-189.365
-190.806
-192.252
-193.709
-195.185
-196.686
-198.218
-199.787
-201.399
-203.06
-204.775
-206.552
-208.397
-210.317
-212.324
-214.427
-216.64
-218.978
-221.458
-224.103
-226.933
-229.981
-233.285
-236.824
-240.884
-244.955
-250.252
-254.526
-262.52
-28.2023
0.0836001
0.0599641
0.0616122
0.0445031
0.0392826
0.0314149
0.0244421
0.0181049
0.0121433
0.00648977
0.000987954
-1.65763
-1.77876
-2.04485
-2.48236
-3.08671
-3.8499
-4.7771
-5.87532
-7.15185
-8.61505
-10.2741
-12.1388
-14.219
-16.5247
-19.0648
-21.8465
-24.8744
-28.1494
-31.6681
-35.4219
-39.3965
-43.5725
-47.9262
-52.431
-57.0589
-61.7826
-66.5763
-71.4159
-76.2795
-81.1472
-86
-90.8201
-95.5903
-100.294
-104.914
-109.436
-113.843
-118.122
-122.261
-126.247
-130.071
-133.726
-137.206
-140.509
-143.636
-146.588
-149.37
-151.991
-154.459
-156.787
-158.986
-161.07
-163.054
-164.952
-166.777
-168.541
-170.25
-171.913
-173.539
-175.129
-176.686
-178.21
-179.701
-181.159
-182.587
-183.989
-185.371
-186.737
-188.094
-189.448
-190.806
-192.174
-193.559
-194.965
-196.399
-197.867
-199.374
-200.926
-202.53
-204.189
-205.913
-207.707
-209.579
-211.541
-213.601
-215.775
-218.076
-220.523
-223.136
-225.937
-228.957
-232.231
-235.738
-239.746
-243.77
-248.929
-253.105
-260.647
-30.1769
0.0780306
0.0592721
0.0600693
0.0443217
0.0395547
0.0318021
0.0249481
0.0186527
0.0126729
0.00698577
0.00143492
-1.03089
-1.15653
-1.43166
-1.88258
-2.50441
-3.28899
-4.2411
-5.36714
-6.67381
-8.16873
-9.86016
-11.7566
-13.867
-16.1996
-18.7619
-21.5598
-24.5969
-27.8739
-31.3877
-35.1312
-39.0932
-43.2581
-47.6068
-52.1177
-56.7672
-61.5316
-66.3869
-71.31
-76.2787
-81.271
-86.266
-91.2429
-96.1813
-101.061
-105.862
-110.564
-115.15
-119.602
-123.904
-128.043
-132.006
-135.785
-139.373
-142.766
-145.964
-148.97
-151.787
-154.424
-156.891
-159.198
-161.359
-163.39
-165.303
-167.114
-168.837
-170.483
-172.062
-173.586
-175.064
-176.503
-177.906
-179.279
-180.622
-181.94
-183.235
-184.513
-185.778
-187.036
-188.291
-189.551
-190.819
-192.103
-193.408
-194.738
-196.099
-197.497
-198.936
-200.423
-201.962
-203.559
-205.221
-206.955
-208.77
-210.674
-212.679
-214.798
-217.044
-219.436
-221.994
-224.738
-227.697
-230.904
-234.338
-238.244
-242.178
-247.142
-251.205
-258.267
-32.6453
0.0718872
0.0580908
0.0574707
0.043576
0.0389818
0.0315008
0.0248719
0.0187313
0.0128444
0.00722574
0.00172438
-0.256202
-0.385709
-0.6681
-1.12958
-1.76527
-2.56686
-3.53863
-4.68656
-6.01691
-7.53675
-9.25371
-11.1756
-13.3104
-15.6656
-18.2478
-21.0623
-24.1123
-27.3988
-30.9195
-34.669
-38.6384
-42.8153
-47.1843
-51.7273
-56.4245
-61.2547
-66.1956
-71.225
-76.32
-81.4577
-86.6148
-91.768
-96.8934
-101.967
-106.967
-111.867
-116.648
-121.287
-125.766
-130.068
-134.178
-138.087
-141.785
-145.268
-148.536
-151.589
-154.434
-157.078
-159.53
-161.805
-163.914
-165.875
-167.702
-169.412
-171.017
-172.531
-173.968
-175.343
-176.666
-177.947
-179.193
-180.409
-181.601
-182.773
-183.93
-185.078
-186.22
-187.363
-188.511
-189.669
-190.842
-192.036
-193.254
-194.503
-195.785
-197.107
-198.473
-199.887
-201.355
-202.883
-204.476
-206.142
-207.888
-209.724
-211.66
-213.708
-215.883
-218.201
-220.68
-223.34
-226.208
-229.315
-232.641
-236.404
-240.213
-244.947
-248.901
-255.522
-35.405
0.0671627
0.0566476
0.0545318
0.0424023
0.0377694
0.0306876
0.0243337
0.018427
0.0127183
0.00725406
0.00188748
0.670148
0.537328
0.24925
-0.219963
-0.866136
-1.68063
-2.66715
-3.83148
-5.1796
-6.71829
-8.45479
-10.3965
-12.551
-14.9254
-17.5259
-20.3577
-23.4243
-26.7271
-30.265
-34.0343
-38.0282
-42.237
-46.6483
-51.2471
-56.0162
-60.9364
-65.9871
-71.1466
-76.3915
-81.6979
-87.0404
-92.3928
-97.7284
-103.02
-108.239
-113.359
-118.354
-123.198
-127.869
-132.347
-136.615
-140.66
-144.472
-148.047
-151.381
-154.477
-157.341
-159.98
-162.407
-164.633
-166.675
-168.549
-170.273
-171.865
-173.334
-174.7
-175.982
-177.195
-178.353
-179.467
-180.547
-181.6
-182.634
-183.654
-184.667
-185.678
-186.692
-187.714
-188.748
-189.798
-190.871
-191.969
-193.096
-194.257
-195.456
-196.696
-197.983
-199.319
-200.71
-202.162
-203.678
-205.267
-206.936
-208.692
-210.547
-212.51
-214.597
-216.821
-219.2
-221.753
-224.502
-227.478
-230.663
-234.248
-237.903
-242.379
-246.234
-252.457
-38.3535
0.0642329
0.0558232
0.0506606
0.0406074
0.0360418
0.0294623
0.0234215
0.0178086
0.0123481
0.00710935
0.00195063
1.75113
1.61548
1.32323
0.848987
0.195491
-0.62801
-1.62465
-2.80018
-4.16055
-5.71244
-7.46299
-9.41952
-11.5895
-13.98
-16.5974
-19.4472
-22.5335
-25.8585
-29.4225
-33.2235
-37.2567
-41.515
-45.9884
-50.6645
-55.5282
-60.5623
-65.7474
-71.062
-76.4825
-81.9837
-87.5381
-93.1169
-98.6897
-104.225
-109.691
-115.056
-120.288
-125.359
-130.241
-134.911
-139.349
-143.539
-147.471
-151.137
-154.535
-157.668
-160.542
-163.165
-165.551
-167.713
-169.669
-171.438
-173.039
-174.487
-175.802
-177.004
-178.115
-179.153
-180.132
-181.068
-181.971
-182.852
-183.719
-184.581
-185.442
-186.31
-187.189
-188.083
-188.998
-189.936
-190.902
-191.899
-192.931
-194
-195.11
-196.264
-197.466
-198.719
-200.028
-201.396
-202.83
-204.334
-205.915
-207.582
-209.343
-211.209
-213.192
-215.305
-217.565
-219.987
-222.593
-225.409
-228.423
-231.796
-235.264
-239.446
-243.193
-249.012
-41.5953
0.061019
0.0536186
0.047305
0.0386222
0.0339377
0.0278866
0.0221969
0.0169279
0.0117781
0.00682347
0.00193549
2.9891
2.85096
2.55598
2.07926
1.42154
0.592728
-0.409513
-1.59122
-2.95849
-4.51815
-6.27749
-8.24402
-10.4254
-12.8291
-15.4619
-18.33
-21.4383
-24.7903
-28.388
-32.2309
-36.3164
-40.6397
-45.1931
-49.9664
-54.9467
-60.1183
-65.4628
-70.959
-76.583
-82.3081
-88.1048
-93.9412
-99.7832
-105.595
-111.339
-116.979
-122.478
-127.801
-132.917
-137.798
-142.42
-146.765
-150.821
-154.58
-158.04
-161.203
-164.075
-166.669
-168.997
-171.076
-172.927
-174.569
-176.023
-177.306
-178.443
-179.46
-180.38
-181.223
-182.008
-182.751
-183.465
-184.163
-184.854
-185.548
-186.25
-186.968
-187.705
-188.467
-189.257
-190.078
-190.933
-191.825
-192.756
-193.729
-194.746
-195.81
-196.923
-198.088
-199.309
-200.589
-201.932
-203.344
-204.83
-206.398
-208.055
-209.811
-211.676
-213.663
-215.785
-218.057
-220.497
-223.127
-225.942
-229.07
-232.31
-236.152
-239.741
-245.071
-45.3733
0.0568461
0.050103
0.0436877
0.0361509
0.0314505
0.0259771
0.0207014
0.0158264
0.0110458
0.00642357
0.00185932
4.38549
4.24521
3.94887
3.47198
2.81313
1.98283
0.979517
-0.203303
-1.57215
-3.13415
-4.89701
-6.86866
-9.05725
-11.4708
-14.117
-17.003
-20.1349
-23.5178
-27.1551
-31.0485
-35.1976
-39.5997
-44.2495
-49.139
-54.2572
-59.5899
-65.1197
-70.8258
-76.6836
-82.6651
-88.7384
-94.8683
-101.016
-107.142
-113.202
-119.153
-124.952
-130.559
-135.936
-141.05
-145.874
-150.386
-154.573
-158.426
-161.943
-165.126
-167.986
-170.533
-172.784
-174.759
-176.48
-177.97
-179.247
-180.337
-181.272
-182.08
-182.786
-183.414
-183.985
-184.518
-185.029
-185.531
-186.035
-186.551
-187.086
-187.646
-188.236
-188.859
-189.519
-190.218
-190.959
-191.742
-192.57
-193.443
-194.364
-195.334
-196.354
-197.427
-198.556
-199.742
-200.989
-202.303
-203.687
-205.147
-206.691
-208.326
-210.061
-211.908
-213.877
-215.98
-218.234
-220.656
-223.243
-226.093
-229.061
-232.51
-235.846
-240.537
-49.925
0.0514097
0.0454745
0.039483
0.0332043
0.0285821
0.0237558
0.0189717
0.0145466
0.010184
0.00593411
0.00173562
5.94084
5.79886
5.50242
5.02755
4.37079
3.54313
2.54347
1.36476
-0.000168245
-1.55894
-3.31983
-5.29143
-7.48262
-9.90232
-12.5593
-15.4619
-18.6179
-22.0339
-25.7156
-29.6666
-33.8889
-38.3822
-43.1435
-48.1672
-53.4442
-58.962
-64.7041
-70.65
-76.7747
-83.0486
-89.4373
-95.902
-102.399
-108.883
-115.303
-121.609
-127.75
-133.678
-139.348
-144.721
-149.767
-154.46
-158.784
-162.731
-166.299
-169.493
-172.324
-174.805
-176.956
-178.801
-180.364
-181.668
-182.738
-183.605
-184.308
-184.878
-185.343
-185.731
-186.066
-186.37
-186.66
-186.952
-187.257
-187.585
-187.943
-188.339
-188.775
-189.254
-189.78
-190.354
-190.976
-191.647
-192.368
-193.14
-193.962
-194.835
-195.759
-196.737
-197.769
-198.858
-200.005
-201.214
-202.489
-203.835
-205.257
-206.762
-208.358
-210.052
-211.856
-213.776
-215.827
-218.02
-220.355
-222.9
-225.551
-228.562
-231.532
-235.435
-55.3288
0.0440071
0.0400801
0.0345755
0.0297815
0.025353
0.02131
0.0170632
0.0131429
0.00923032
0.00538059
0.00157548
7.65495
7.51184
7.21647
6.74568
6.09455
5.27404
4.28309
3.11397
1.75871
0.209046
-1.54402
-3.50992
-5.69848
-8.11977
-10.7839
-13.7008
-16.88
-20.3303
-24.0593
-28.0734
-32.377
-36.9723
-41.8592
-47.0343
-52.4908
-58.218
-64.2006
-70.4185
-76.8462
-83.4527
-90.2009
-97.0478
-103.945
-110.839
-117.671
-124.384
-130.915
-137.208
-143.21
-148.875
-154.165
-159.053
-163.522
-167.563
-171.175
-174.366
-177.148
-179.54
-181.564
-183.248
-184.62
-185.7
-186.522
-187.133
-187.568
-187.865
-188.058
-188.177
-188.252
-188.304
-188.355
-188.42
-188.512
-188.641
-188.815
-189.038
-189.314
-189.645
-190.033
-190.478
-190.979
-191.537
-192.149
-192.817
-193.538
-194.312
-195.139
-196.019
-196.953
-197.94
-198.983
-200.083
-201.244
-202.47
-203.763
-205.131
-206.579
-208.112
-209.739
-211.466
-213.301
-215.251
-217.315
-219.535
-221.836
-224.375
-226.882
-229.925
-61.45
0.0343003
0.0343341
0.0286989
0.0258184
0.0218537
0.0187014
0.0150363
0.0116665
0.00821472
0.00478592
0.00138802
9.52673
9.38328
9.08993
8.62528
7.98386
7.17554
6.19873
5.04499
3.70549
2.17124
0.432392
-1.52146
-3.70134
-6.1187
-8.78524
-11.7128
-14.9129
-18.3968
-22.1746
-26.2554
-30.6466
-35.3535
-40.3788
-45.7218
-51.3784
-57.3398
-63.5923
-70.1167
-76.8871
-83.8711
-91.0286
-98.3125
-105.668
-113.033
-120.341
-127.522
-134.503
-141.215
-147.594
-153.587
-159.148
-164.249
-168.869
-173.002
-176.647
-179.817
-182.527
-184.801
-186.665
-188.151
-189.283
-190.097
-190.634
-190.943
-191.069
-191.054
-190.938
-190.756
-190.54
-190.316
-190.107
-189.928
-189.793
-189.712
-189.691
-189.735
-189.845
-190.024
-190.271
-190.585
-190.964
-191.406
-191.91
-192.472
-193.092
-193.767
-194.495
-195.275
-196.107
-196.991
-197.927
-198.915
-199.958
-201.058
-202.219
-203.444
-204.736
-206.102
-207.546
-209.071
-210.683
-212.382
-214.167
-216.054
-217.989
-220.054
-222.048
-224.274
-67.9104
0.0234525
0.0283805
0.0221996
0.0219724
0.0181321
0.0161264
0.0129381
0.0101497
0.00716171
0.0041701
0.00118316
11.5542
11.4113
11.1206
10.6646
10.0377
9.24714
8.29023
7.15795
5.84069
4.3287
2.61119
0.67659
-1.48751
-3.89416
-6.55697
-9.4899
-12.7069
-16.2219
-20.048
-24.1974
-28.681
-33.5073
-38.6824
-44.209
-50.0859
-56.3069
-62.8605
-69.7283
-76.8849
-84.2964
-91.9201
-99.7039
-107.586
-115.496
-123.355
-131.078
-138.58
-145.776
-152.588
-158.951
-164.816
-170.146
-174.924
-179.142
-182.807
-185.933
-188.542
-190.661
-192.325
-193.569
-194.413
-194.904
-195.103
-195.06
-194.828
-194.455
-193.987
-193.466
-192.927
-192.4
-191.907
-191.466
-191.089
-190.786
-190.561
-190.419
-190.36
-190.383
-190.487
-190.669
-190.925
-191.252
-191.646
-192.104
-192.622
-193.197
-193.826
-194.506
-195.237
-196.015
-196.842
-197.716
-198.638
-199.61
-200.633
-201.711
-202.845
-204.039
-205.295
-206.615
-208.001
-209.449
-210.955
-212.519
-214.093
-215.724
-217.202
-218.769
-74.2249
0.0117706
0.0232327
0.0157849
0.0186743
0.0144431
0.0138184
0.0108426
0.00868213
0.00611053
0.00355798
0.000972435
13.7345
13.5929
13.3052
12.8611
12.2546
11.4876
10.5567
9.45215
8.16407
6.68187
4.99371
3.08664
0.946671
-1.44109
-4.09238
-7.02366
-10.2516
-13.7931
-17.6648
-21.8826
-26.4611
-31.4128
-36.7479
-42.4728
-48.5899
-55.0965
-61.9836
-69.2347
-76.8252
-84.7203
-92.8747
-101.231
-109.721
-118.261
-126.761
-135.118
-143.228
-150.986
-158.298
-165.085
-171.287
-176.867
-181.806
-186.102
-189.766
-192.817
-195.286
-197.207
-198.621
-199.555
-200.053
-200.167
-199.966
-199.511
-198.862
-198.076
-197.207
-196.304
-195.405
-194.544
-193.743
-193.02
-192.387
-191.85
-191.414
-191.08
-190.847
-190.713
-190.673
-190.722
-190.856
-191.069
-191.355
-191.71
-192.128
-192.604
-193.134
-193.715
-194.343
-195.016
-195.732
-196.491
-197.29
-198.132
-199.016
-199.944
-200.918
-201.937
-203.005
-204.119
-205.281
-206.484
-207.721
-208.989
-210.223
-211.504
-212.516
-213.768
-79.9408
0.00324337
0.0192467
0.0105409
0.0158331
0.0111279
0.0117681
0.00882181
0.00732883
0.00511086
0.00297704
0.000771626
16.0633
15.9237
15.6396
15.2114
14.632
13.8942
12.9956
11.9255
10.6742
9.23022
7.58055
5.71052
3.60445
1.24547
-1.38467
-4.30521
-7.53587
-11.097
-15.0091
-19.2925
-23.9662
-29.0473
-34.5506
-40.4873
-46.8642
-53.6826
-60.9372
-68.6145
-76.6912
-85.1326
-93.8912
-102.905
-112.096
-121.371
-130.621
-139.723
-148.549
-156.968
-164.862
-172.136
-178.721
-184.573
-189.675
-194.032
-197.662
-200.597
-202.877
-204.545
-205.65
-206.207
-206.275
-205.936
-205.261
-204.322
-203.187
-201.923
-200.595
-199.259
-197.961
-196.734
-195.6
-194.575
-193.67
-192.889
-192.234
-191.704
-191.295
-191.002
-190.819
-190.738
-190.752
-190.853
-191.034
-191.288
-191.608
-191.987
-192.42
-192.903
-193.43
-193.998
-194.605
-195.247
-195.924
-196.635
-197.379
-198.157
-198.968
-199.814
-200.693
-201.604
-202.547
-203.514
-204.498
-205.506
-206.431
-207.463
-208.1
-209.178
-84.9352
-0.000920734
0.0165212
0.00703435
0.0136018
0.00847946
0.00994286
0.00708368
0.00607651
0.00418394
0.00242861
0.000588184
18.5353
18.3988
18.1182
17.7103
17.165
16.4612
15.6029
14.5742
13.3681
11.9719
10.3714
8.5493
6.48853
4.17017
1.5729
-1.32559
-4.54821
-8.11929
-12.0637
-16.407
-21.1735
-26.3857
-32.0635
-38.2239
-44.8791
-52.036
-59.6937
-67.8429
-76.4631
-85.5209
-94.9674
-104.736
-114.742
-124.875
-135.009
-144.997
-154.68
-163.898
-172.488
-180.339
-187.368
-193.524
-198.787
-203.171
-206.709
-209.45
-211.45
-212.77
-213.448
-213.538
-213.097
-212.223
-211
-209.505
-207.814
-206.003
-204.146
-202.321
-200.578
-198.949
-197.454
-196.108
-194.918
-193.885
-193.006
-192.277
-191.692
-191.241
-190.917
-190.709
-190.606
-190.6
-190.679
-190.836
-191.062
-191.348
-191.687
-192.074
-192.502
-192.968
-193.466
-193.993
-194.548
-195.129
-195.733
-196.361
-197.011
-197.682
-198.375
-199.087
-199.818
-200.559
-201.306
-202.09
-202.738
-203.579
-203.981
-204.979
-89.2475
-0.00124417
0.0144853
0.00515513
0.0115415
0.0064649
0.00823135
0.00555425
0.00490673
0.00331499
0.00190314
0.000414524
21.1436
21.0091
20.7377
20.3534
19.8448
19.183
18.369
17.392
16.2414
14.904
13.3654
11.6028
9.60062
7.33724
4.78683
1.92406
-1.27716
-4.8455
-8.81026
-13.2048
-18.0588
-23.4006
-29.2568
-35.6509
-42.6021
-50.1238
-58.2216
-66.8915
-76.1179
-85.8702
-96.1002
-106.739
-117.691
-128.838
-140.031
-151.102
-161.839
-172.05
-181.479
-189.973
-197.483
-203.955
-209.379
-213.779
-217.195
-219.684
-221.318
-222.184
-222.314
-221.769
-220.677
-219.135
-217.233
-215.057
-212.694
-210.234
-207.784
-205.434
-203.222
-201.165
-199.285
-197.6
-196.111
-194.816
-193.709
-192.782
-192.022
-191.418
-190.957
-190.627
-190.414
-190.305
-190.289
-190.354
-190.49
-190.688
-190.938
-191.232
-191.565
-191.93
-192.323
-192.738
-193.173
-193.624
-194.09
-194.569
-195.058
-195.558
-196.067
-196.583
-197.106
-197.632
-198.153
-198.737
-199.143
-199.832
-200.085
-201.06
-93.0658
-0.000165054
0.0126438
0.00392828
0.00951755
0.0049549
0.00656855
0.00423171
0.00378526
0.00250268
0.00140017
0.000240075
23.8787
23.7463
23.4902
23.133
22.6631
22.0485
21.2883
20.3721
19.2882
18.022
16.5561
14.8701
12.9426
10.7515
8.2629
5.45212
2.28883
-1.26143
-5.22933
-9.66303
-14.5959
-20.0631
-26.0984
-32.7338
-39.9969
-47.9095
-56.4852
-65.728
-75.6289
-86.1634
-97.2865
-108.93
-121
-133.375
-145.872
-158.28
-170.258
-181.553
-191.991
-201.341
-209.465
-216.308
-221.902
-226.289
-229.521
-231.663
-232.811
-233.058
-232.458
-231.129
-229.22
-226.844
-224.102
-221.087
-217.905
-214.678
-211.532
-208.557
-205.804
-203.287
-201.02
-199.004
-197.221
-195.663
-194.328
-193.202
-192.271
-191.52
-190.93
-190.485
-190.169
-189.966
-189.861
-189.842
-189.895
-190.009
-190.175
-190.382
-190.624
-190.893
-191.183
-191.489
-191.807
-192.132
-192.462
-192.794
-193.125
-193.455
-193.781
-194.103
-194.423
-194.738
-195.037
-195.43
-195.617
-196.167
-196.32
-197.276
-96.6099
0.000829519
0.0107053
0.00302455
0.00750243
0.00366836
0.0049311
0.00305445
0.00268608
0.00173374
0.000915917
6.77648e-05
26.7302
26.5993
26.3646
26.0398
25.6106
25.0487
24.3507
23.505
22.4991
21.3172
19.9406
18.3476
16.5138
14.411
12.0078
9.27022
6.16043
2.64429
-1.29707
-5.75741
-10.7579
-16.3425
-22.5542
-29.4353
-37.0242
-45.3528
-54.4453
-64.3159
-74.9663
-86.3818
-98.5286
-111.358
-124.798
-138.707
-152.751
-166.627
-180.104
-192.833
-204.534
-214.89
-223.691
-230.94
-236.701
-241.03
-243.983
-245.639
-246.128
-245.541
-244
-241.707
-238.814
-235.454
-231.736
-227.738
-223.555
-219.379
-215.398
-211.707
-208.348
-205.321
-202.622
-200.243
-198.164
-196.364
-194.824
-193.517
-192.425
-191.535
-190.825
-190.275
-189.866
-189.578
-189.394
-189.298
-189.276
-189.315
-189.403
-189.53
-189.686
-189.864
-190.057
-190.258
-190.462
-190.664
-190.861
-191.048
-191.223
-191.384
-191.529
-191.658
-191.774
-191.878
-191.955
-192.148
-192.119
-192.52
-192.57
-193.452
-100.198
0.00149767
0.00847293
0.002362
0.00547618
0.00246161
0.00330487
0.00193803
0.00159801
0.000970106
0.000431728
-0.000109861
29.6851
29.5577
29.3482
29.0601
28.6755
28.1727
27.545
26.7801
25.8642
24.7806
23.5092
22.0265
20.3058
18.3159
16.0217
13.3828
10.3531
6.87675
3.02422
-1.46329
-6.51655
-12.2069
-18.588
-25.7157
-33.6416
-42.4104
-52.0591
-62.6161
-74.0985
-86.5141
-99.8784
-114.187
-129.316
-144.924
-160.782
-176.569
-191.937
-206.379
-219.449
-230.824