/*--------------------------------*- C++ -*----------------------------------*\
| =========                 |                                                 |
| \\      /  F ield         | OpenFOAM: The Open Source CFD Toolbox           |
|  \\    /   O peration     | Version:  v2106                                 |
|   \\  /    A nd           | Website:  www.openfoam.com                      |
|    \\/     M anipulation  |                                                 |
\*---------------------------------------------------------------------------*/
FoamFile
{
    version     2.0;
    format      ascii;
    arch        "LSB;label=32;scalar=64";
    class       surfaceScalarField;
    location    "1.8";
    object      phi;
}
// * * * * * * * * * * * * * * * * * * * * * * * * * * * * * * * * * * * * * //

dimensions      [0 3 -1 0 0 0 0];

oriented        oriented;

internalField   nonuniform List<scalar> 
59425
(
1.80945e-08
-1.07846e-05
3.91614e-08
-1.09403e-05
6.34532e-08
-1.09068e-05
8.99095e-08
-1.08408e-05
1.16391e-07
-1.0753e-05
1.43484e-07
-1.06401e-05
1.72784e-07
-1.04969e-05
2.05286e-07
-1.03229e-05
2.41682e-07
-1.0117e-05
2.82789e-07
-9.8766e-06
3.29712e-07
-9.59738e-06
3.8408e-07
-9.27375e-06
4.48536e-07
-8.89833e-06
5.27872e-07
-8.46167e-06
6.31824e-07
-7.95191e-06
7.81889e-07
-7.35524e-06
1.02544e-06
-6.65633e-06
1.4529e-06
-5.82891e-06
2.21266e-06
-4.80917e-06
3.56022e-06
-3.47979e-06
5.97412e-06
-1.62133e-06
8.40577e-06
-7.82107e-07
9.72674e-06
-2.13787e-06
1.06125e-05
-3.15965e-06
1.12577e-05
-3.92067e-06
1.17763e-05
-4.49747e-06
1.21984e-05
-4.97348e-06
1.25716e-05
-5.33813e-06
1.29042e-05
-5.63477e-06
1.32143e-05
-5.86651e-06
1.34931e-05
-6.05898e-06
1.37469e-05
-6.2089e-06
1.39807e-05
-6.31838e-06
1.41937e-05
-6.3955e-06
1.43888e-05
-6.44252e-06
1.45653e-05
-6.4647e-06
1.47257e-05
-6.46474e-06
1.48593e-05
-6.4531e-06
1.49597e-05
-6.429e-06
1.5027e-05
-6.38585e-06
1.50592e-05
-6.32747e-06
1.50558e-05
-6.2575e-06
1.50212e-05
-6.17035e-06
1.49545e-05
-6.06455e-06
1.48493e-05
-5.94223e-06
1.47157e-05
-5.7912e-06
1.45606e-05
-5.61216e-06
1.43775e-05
-5.41916e-06
1.41615e-05
-5.21281e-06
1.39154e-05
-4.98362e-06
1.36409e-05
-4.72897e-06
1.33353e-05
-4.4502e-06
1.3002e-05
-4.13787e-06
1.26496e-05
-3.7814e-06
1.22909e-05
-3.37188e-06
1.19548e-05
-2.89428e-06
1.17037e-05
-2.33682e-06
1.16735e-05
-1.66793e-06
1.20187e-05
-7.28409e-07
1.29282e-05
3.92074e-07
1.32521e-05
4.1547e-09
1.31131e-05
-5.63485e-07
1.27581e-05
-9.39612e-07
1.22643e-05
-1.16668e-06
1.16938e-05
-1.23411e-06
1.12294e-05
-1.01129e-06
1.13225e-05
-2.13883e-07
1.1262e-05
-1.56039e-07
1.10736e-05
-3.00296e-07
1.06275e-05
-5.88761e-07
1.03038e-05
-4.24083e-07
1.02172e-05
-1.10625e-07
9.9636e-06
-2.93911e-07
9.53532e-06
-5.21382e-07
9.04185e-06
-6.16551e-07
8.52921e-06
-6.20607e-07
8.06551e-06
-5.05055e-07
7.87977e-06
-1.13172e-07
7.69671e-06
-2.57788e-08
7.68776e-06
2.95489e-07
7.66222e-06
2.28564e-07
7.26821e-06
-3.26701e-07
6.96202e-06
-3.57453e-07
6.51342e-06
-6.66378e-07
5.86437e-06
-9.42772e-07
5.2028e-06
-9.80181e-07
5.31722e-06
1.79011e-07
4.99648e-06
-3.79451e-07
4.77211e-06
-2.35268e-07
4.71066e-06
4.37679e-08
4.54702e-06
-1.40569e-07
4.39949e-06
-2.34869e-07
4.56358e-06
5.29463e-08
4.81782e-06
-1.13528e-07
5.28164e-06
-4.12652e-07
6.24964e-06
-6.12927e-07
8.23528e-06
-1.47666e-06
1.02539e-05
-3.90129e-06
-2.38566e-05
-3.68729e-05
-3.54042e-05
-2.46739e-05
-3.50311e-05
-3.65677e-05
-3.16211e-05
-2.16808e-05
-3.04877e-05
-2.12814e-05
-2.80388e-05
-1.40071e-05
-2.70872e-05
-1.22363e-05
-2.54651e-05
-8.12616e-06
-2.45031e-05
-6.08575e-06
-2.31624e-05
-3.4472e-06
-2.25602e-05
-2.34952e-06
-8.8291e-07
3.94953e-08
-1.08241e-05
7.95995e-08
-1.09804e-05
1.21225e-07
-1.09484e-05
1.65449e-07
-1.0885e-05
2.12191e-07
-1.07997e-05
2.62605e-07
-1.06905e-05
3.18317e-07
-1.05526e-05
3.80571e-07
-1.03851e-05
4.50606e-07
-1.01871e-05
5.30027e-07
-9.95602e-06
6.21052e-07
-9.68841e-06
7.26822e-07
-9.37952e-06
8.5192e-07
-9.02343e-06
1.00313e-06
-8.61288e-06
1.19035e-06
-8.13913e-06
1.42664e-06
-7.59153e-06
1.72629e-06
-6.95598e-06
2.10943e-06
-6.21205e-06
2.64966e-06
-5.3494e-06
3.58442e-06
-4.41454e-06
5.5043e-06
-3.54119e-06
7.87673e-06
-3.15453e-06
9.329e-06
-3.59013e-06
1.03057e-05
-4.13633e-06
1.10272e-05
-4.64217e-06
1.16047e-05
-5.07495e-06
1.20787e-05
-5.44755e-06
1.24933e-05
-5.75267e-06
1.28624e-05
-6.00391e-06
1.32001e-05
-6.2042e-06
1.35053e-05
-6.36416e-06
1.37819e-05
-6.48558e-06
1.40348e-05
-6.57121e-06
1.42648e-05
-6.62548e-06
1.44735e-05
-6.65122e-06
1.46608e-05
-6.65209e-06
1.48271e-05
-6.63104e-06
1.49661e-05
-6.59211e-06
1.5073e-05
-6.53586e-06
1.5148e-05
-6.46089e-06
1.51908e-05
-6.37025e-06
1.52011e-05
-6.26778e-06
1.51807e-05
-6.14995e-06
1.51299e-05
-6.0138e-06
1.50458e-05
-5.85807e-06
1.4933e-05
-5.67836e-06
1.4797e-05
-5.47616e-06
1.46349e-05
-5.25711e-06
1.44435e-05
-5.02139e-06
1.4225e-05
-4.7651e-06
1.39821e-05
-4.4861e-06
1.37146e-05
-4.18275e-06
1.34267e-05
-3.84992e-06
1.31264e-05
-3.48107e-06
1.28239e-05
-3.06946e-06
1.25367e-05
-2.60705e-06
1.22861e-05
-2.08625e-06
1.21115e-05
-1.49327e-06
1.22627e-05
-8.79625e-07
1.30476e-05
-3.92817e-07
1.33932e-05
-3.41444e-07
1.33328e-05
-5.03065e-07
1.3045e-05
-6.5178e-07
1.26101e-05
-7.31843e-07
1.20832e-05
-7.07149e-07
1.16186e-05
-5.46762e-07
1.16335e-05
-2.28761e-07
1.15703e-05
-9.28456e-08
1.13806e-05
-1.10579e-07
1.09514e-05
-1.59544e-07
1.06225e-05
-9.51808e-08
1.05084e-05
3.44453e-09
1.02554e-05
-4.08764e-08
9.8468e-06
-1.12806e-07
9.37573e-06
-1.45487e-07
8.88023e-06
-1.2511e-07
8.41602e-06
-4.0843e-08
8.18237e-06
1.20478e-07
7.94785e-06
2.08737e-07
7.91469e-06
3.28651e-07
7.87374e-06
2.69507e-07
7.48684e-06
6.02069e-08
7.15936e-06
-2.99799e-08
6.68947e-06
-1.96484e-07
6.02194e-06
-2.75245e-07
5.32095e-06
-2.79196e-07
5.36138e-06
1.38585e-07
4.98285e-06
-9.29781e-10
4.69308e-06
5.45069e-08
4.57776e-06
1.59085e-07
4.33457e-06
1.02614e-07
4.05813e-06
4.1569e-08
4.05618e-06
5.48927e-08
4.04654e-06
-1.03889e-07
4.13202e-06
-4.98131e-07
4.591e-06
-1.07191e-06
5.85537e-06
-2.74104e-06
7.03128e-06
-5.0772e-06
-2.05274e-05
-9.31418e-06
-3.1379e-05
-1.38223e-05
-2.94355e-05
-3.85113e-05
-2.63843e-05
-2.47319e-05
-2.57737e-05
-2.1892e-05
-2.42354e-05
-1.55454e-05
-2.37661e-05
-1.27055e-05
-2.26852e-05
-9.20715e-06
-2.20086e-05
-6.7623e-06
-2.10043e-05
-4.4515e-06
-2.05931e-05
-2.76077e-06
-1.22409e-06
6.11495e-08
-1.08853e-05
1.23211e-07
-1.10424e-05
1.87744e-07
-1.1013e-05
2.55666e-07
-1.09529e-05
3.2779e-07
-1.08719e-05
4.05055e-07
-1.07678e-05
4.89511e-07
-1.0637e-05
5.82983e-07
-1.04786e-05
6.87371e-07
-1.02915e-05
8.05012e-07
-1.00737e-05
9.38998e-07
-9.82239e-06
1.09354e-06
-9.53406e-06
1.27451e-06
-9.20439e-06
1.4902e-06
-8.82858e-06
1.75265e-06
-8.40158e-06
2.07987e-06
-7.91875e-06
2.50128e-06
-7.37739e-06
3.07084e-06
-6.78161e-06
3.87379e-06
-6.15236e-06
4.97873e-06
-5.51947e-06
6.37227e-06
-4.93472e-06
7.79687e-06
-4.57912e-06
8.92081e-06
-4.71407e-06
9.8162e-06
-5.03172e-06
1.05497e-05
-5.37571e-06
1.11721e-05
-5.69729e-06
1.17087e-05
-5.98414e-06
1.21832e-05
-6.22722e-06
1.2608e-05
-6.42871e-06
1.29936e-05
-6.5898e-06
1.33442e-05
-6.71474e-06
1.36638e-05
-6.80517e-06
1.39556e-05
-6.863e-06
1.42211e-05
-6.89096e-06
1.44612e-05
-6.89141e-06
1.46761e-05
-6.86694e-06
1.48649e-05
-6.81988e-06
1.50253e-05
-6.75243e-06
1.5155e-05
-6.6656e-06
1.52541e-05
-6.55996e-06
1.53214e-05
-6.43758e-06
1.53546e-05
-6.30097e-06
1.53538e-05
-6.14916e-06
1.532e-05
-5.98e-06
1.52539e-05
-5.79194e-06
1.51587e-05
-5.58321e-06
1.50373e-05
-5.35469e-06
1.48891e-05
-5.10895e-06
1.47141e-05
-4.84635e-06
1.45142e-05
-4.56519e-06
1.42921e-05
-4.264e-06
1.40508e-05
-3.94146e-06
1.37959e-05
-3.595e-06
1.35363e-05
-3.22153e-06
1.32856e-05
-2.81872e-06
1.30643e-05
-2.38574e-06
1.29039e-05
-1.92588e-06
1.28638e-05
-1.45317e-06
1.29789e-05
-9.94721e-07
1.31686e-05
-5.82528e-07
1.32345e-05
-4.07354e-07
1.31299e-05
-3.98436e-07
1.29043e-05
-4.26159e-07
1.25996e-05
-4.27127e-07
1.22623e-05
-3.69867e-07
1.19521e-05
-2.36595e-07
1.17564e-05
-3.3039e-08
1.15687e-05
9.48685e-08
1.13274e-05
1.30705e-07
1.10262e-05
1.41646e-07
1.07332e-05
1.97844e-07
1.04731e-05
2.63499e-07
1.01726e-05
2.5962e-07
9.82404e-06
2.35777e-07
9.44925e-06
2.29299e-07
9.07209e-06
2.52054e-07
8.72061e-06
3.10629e-07
8.42901e-06
4.12085e-07
8.16264e-06
4.75099e-07
7.95129e-06
5.39999e-07
7.70814e-06
5.12657e-07
7.37531e-06
3.93039e-07
7.02061e-06
3.24712e-07
6.60438e-06
2.19747e-07
6.16368e-06
1.6545e-07
5.71834e-06
1.66144e-07
5.48374e-06
3.73176e-07
5.16399e-06
3.18826e-07
4.88531e-06
3.33177e-07
4.67353e-06
3.70863e-07
4.45056e-06
3.25582e-07
4.217e-06
2.75122e-07
4.03922e-06
2.32672e-07
3.82183e-06
1.13496e-07
3.52303e-06
-1.99338e-07
3.05805e-06
-6.06918e-07
2.21814e-06
-1.90113e-06
3.58789e-07
-3.21785e-06
-4.74934e-06
-4.20606e-06
-1.06971e-05
-7.87454e-06
-1.78898e-05
-3.13185e-05
-1.89588e-05
-2.3663e-05
-2.04616e-05
-2.03893e-05
-2.04061e-05
-1.56009e-05
-2.05096e-05
-1.2602e-05
-2.01912e-05
-9.52558e-06
-1.98921e-05
-7.06133e-06
-1.94949e-05
-4.84872e-06
-1.92275e-05
-3.02818e-06
-1.41431e-06
8.18636e-08
-1.09671e-05
1.65099e-07
-1.11257e-05
2.51663e-07
-1.10995e-05
3.41946e-07
-1.10432e-05
4.3736e-07
-1.09673e-05
5.39246e-07
-1.08697e-05
6.50027e-07
-1.07478e-05
7.71941e-07
-1.06005e-05
9.07354e-07
-1.04269e-05
1.0591e-06
-1.02254e-05
1.23081e-06
-9.9941e-06
1.42721e-06
-9.73047e-06
1.65462e-06
-9.4318e-06
1.92152e-06
-9.09548e-06
2.23942e-06
-8.71947e-06
2.62398e-06
-8.30331e-06
3.09628e-06
-7.84969e-06
3.68203e-06
-7.36736e-06
4.40437e-06
-6.8747e-06
5.28521e-06
-6.40031e-06
6.34494e-06
-5.99444e-06
7.53308e-06
-5.76726e-06
8.60434e-06
-5.78532e-06
9.51171e-06
-5.93909e-06
1.02798e-05
-6.14379e-06
1.094e-05
-6.35752e-06
1.15157e-05
-6.55981e-06
1.20269e-05
-6.73844e-06
1.24866e-05
-6.88836e-06
1.29041e-05
-7.00732e-06
1.32847e-05
-7.09538e-06
1.36324e-05
-7.15288e-06
1.39501e-05
-7.1807e-06
1.42395e-05
-7.1803e-06
1.45013e-05
-7.15326e-06
1.47358e-05
-7.10136e-06
1.49422e-05
-7.02627e-06
1.51192e-05
-6.92952e-06
1.52659e-05
-6.81228e-06
1.53817e-05
-6.67571e-06
1.54656e-05
-6.52146e-06
1.55159e-05
-6.3513e-06
1.55323e-05
-6.16554e-06
1.55155e-05
-5.96322e-06
1.54669e-05
-5.74334e-06
1.53888e-05
-5.50515e-06
1.52834e-05
-5.24922e-06
1.51514e-05
-4.97702e-06
1.49942e-05
-4.6891e-06
1.48139e-05
-4.38495e-06
1.46139e-05
-4.06399e-06
1.43981e-05
-3.72569e-06
1.41724e-05
-3.36924e-06
1.39448e-05
-2.99398e-06
1.37264e-05
-2.60025e-06
1.35309e-05
-2.19031e-06
1.3375e-05
-1.76991e-06
1.3273e-05
-1.35123e-06
1.32349e-05
-9.5661e-07
1.32759e-05
-6.23524e-07
1.32839e-05
-4.15352e-07
1.31887e-05
-3.03227e-07
1.29963e-05
-2.33762e-07
1.27292e-05
-1.60073e-07
1.24201e-05
-6.06925e-08
1.21182e-05
6.52615e-08
1.18787e-05
2.06451e-07
1.16573e-05
3.163e-07
1.14012e-05
3.86792e-07
1.11024e-05
4.40483e-07
1.08047e-05
4.95524e-07
1.05245e-05
5.43666e-07
1.02158e-05
5.68323e-07
9.87048e-06
5.81104e-07
9.50342e-06
5.96355e-07
9.13263e-06
6.22839e-07
8.77822e-06
6.65041e-07
8.46998e-06
7.2032e-07
8.18091e-06
7.64163e-07
7.93071e-06
7.902e-07
7.67019e-06
7.73178e-07
7.34364e-06
7.19586e-07
6.99488e-06
6.73467e-07
6.59174e-06
6.22882e-07
6.16412e-06
5.93066e-07
5.73445e-06
5.9581e-07
5.4544e-06
6.53229e-07
5.13043e-06
6.42789e-07
4.8242e-06
6.394e-07
4.55829e-06
6.36769e-07
4.28471e-06
5.99153e-07
4.01269e-06
5.47138e-07
3.77967e-06
4.65694e-07
3.53828e-06
3.54873e-07
3.26499e-06
7.395e-08
2.88299e-06
-2.24919e-07
2.24328e-06
-1.26143e-06
7.92898e-07
-1.76746e-06
-3.59201e-06
1.78843e-07
-7.69785e-06
-3.76869e-06
-1.28278e-05
-2.61885e-05
-1.47053e-05
-2.17855e-05
-1.63566e-05
-1.87379e-05
-1.70345e-05
-1.4923e-05
-1.75268e-05
-1.21097e-05
-1.76317e-05
-9.42064e-06
-1.76027e-05
-7.09037e-06
-1.74565e-05
-4.99487e-06
-1.73398e-05
-3.14494e-06
-1.49748e-06
1.01164e-07
-1.10683e-05
2.03972e-07
-1.12285e-05
3.10713e-07
-1.12063e-05
4.21766e-07
-1.11543e-05
5.38772e-07
-1.10843e-05
6.63439e-07
-1.09943e-05
7.98347e-07
-1.08827e-05
9.46056e-07
-1.07482e-05
1.10926e-06
-1.05901e-05
1.2911e-06
-1.04072e-05
1.49541e-06
-1.01984e-05
1.72704e-06
-9.96209e-06
1.9921e-06
-9.69687e-06
2.29839e-06
-9.40177e-06
2.6558e-06
-9.07688e-06
3.07661e-06
-8.72413e-06
3.57557e-06
-8.34865e-06
4.16865e-06
-7.96045e-06
4.8703e-06
-7.57635e-06
5.69147e-06
-7.22148e-06
6.62885e-06
-6.93183e-06
7.61468e-06
-6.75309e-06
8.53752e-06
-6.70816e-06
9.36313e-06
-6.7647e-06
1.00966e-05
-6.87724e-06
1.07511e-05
-7.01206e-06
1.13392e-05
-7.14788e-06
1.18719e-05
-7.2712e-06
1.23579e-05
-7.37432e-06
1.28035e-05
-7.45292e-06
1.32131e-05
-7.50495e-06
1.35897e-05
-7.52951e-06
1.39355e-05
-7.52649e-06
1.42517e-05
-7.49646e-06
1.45387e-05
-7.44034e-06
1.47967e-05
-7.35927e-06
1.50249e-05
-7.25451e-06
1.52227e-05
-7.1273e-06
1.53893e-05
-6.97888e-06
1.55241e-05
-6.81056e-06
1.56265e-05
-6.62385e-06
1.56955e-05
-6.42023e-06
1.57305e-05
-6.20055e-06
1.57321e-05
-5.96481e-06
1.57014e-05
-5.71271e-06
1.56404e-05
-5.44415e-06
1.5551e-05
-5.15974e-06
1.54345e-05
-4.86059e-06
1.52929e-05
-4.54751e-06
1.51288e-05
-4.22078e-06
1.49454e-05
-3.8806e-06
1.47469e-05
-3.52724e-06
1.45388e-05
-3.1611e-06
1.43278e-05
-2.783e-06
1.41224e-05
-2.39487e-06
1.39326e-05
-2.00044e-06
1.3769e-05
-1.60635e-06
1.36413e-05
-1.22353e-06
1.35531e-05
-8.68418e-07
1.34908e-05
-5.61207e-07
1.33982e-05
-3.22797e-07
1.3248e-05
-1.52967e-07
1.3038e-05
-2.37798e-08
1.27852e-05
9.26897e-08
1.25123e-05
2.12185e-07
1.22377e-05
3.39861e-07
1.19751e-05
4.69127e-07
1.17112e-05
5.80172e-07
1.14323e-05
6.65709e-07
1.11377e-05
7.35015e-07
1.08358e-05
7.97439e-07
1.05287e-05
8.50797e-07
1.02084e-05
8.88585e-07
9.87362e-06
9.15899e-07
9.5291e-06
9.40863e-07
9.1826e-06
9.69346e-07
8.8434e-06
1.00423e-06
8.52026e-06
1.04347e-06
8.21021e-06
1.07421e-06
7.90969e-06
1.09072e-06
7.5992e-06
1.08367e-06
7.26393e-06
1.05484e-06
6.91508e-06
1.02232e-06
6.55108e-06
9.86875e-07
6.18152e-06
9.62626e-07
5.82094e-06
9.56384e-07
5.50224e-06
9.71917e-07
5.18143e-06
9.63601e-07
4.87378e-06
9.47044e-07
4.58417e-06
9.26369e-07
4.29227e-06
8.91046e-07
3.99492e-06
8.44487e-07
3.68491e-06
7.75698e-07
3.3383e-06
7.0148e-07
2.92944e-06
4.82807e-07
2.41551e-06
2.89003e-07
1.77171e-06
-6.17627e-07
7.5893e-07
-7.54683e-07
-8.23563e-07
1.76133e-06
-3.6612e-06
-9.31053e-07
-8.37202e-06
-2.14777e-05
-1.08326e-05
-1.93249e-05
-1.28407e-05
-1.67298e-05
-1.40142e-05
-1.37496e-05
-1.48253e-05
-1.12986e-05
-1.52784e-05
-8.96754e-06
-1.55169e-05
-6.8518e-06
-1.56091e-05
-4.90275e-06
-1.56309e-05
-3.12309e-06
-1.50589e-06
1.18827e-07
-1.11871e-05
2.39477e-07
-1.13491e-05
3.64467e-07
-1.13313e-05
4.94529e-07
-1.12843e-05
6.31317e-07
-1.12211e-05
7.76819e-07
-1.11398e-05
9.33605e-07
-1.10395e-05
1.1044e-06
-1.0919e-05
1.29209e-06
-1.07778e-05
1.49996e-06
-1.06151e-05
1.73185e-06
-1.04303e-05
1.99239e-06
-1.02226e-05
2.28719e-06
-9.99166e-06
2.62295e-06
-9.73753e-06
3.0076e-06
-9.46153e-06
3.4502e-06
-9.16673e-06
3.96042e-06
-8.85887e-06
4.54722e-06
-8.54725e-06
5.21651e-06
-8.24564e-06
5.96759e-06
-7.97256e-06
6.78635e-06
-7.75059e-06
7.6354e-06
-7.60213e-06
8.46407e-06
-7.53683e-06
9.24107e-06
-7.5417e-06
9.95732e-06
-7.59349e-06
1.06144e-05
-7.66909e-06
1.12171e-05
-7.75063e-06
1.17714e-05
-7.82552e-06
1.22826e-05
-7.88552e-06
1.27551e-05
-7.92538e-06
1.3192e-05
-7.94192e-06
1.35958e-05
-7.93333e-06
1.39681e-05
-7.89875e-06
1.43097e-05
-7.83806e-06
1.4621e-05
-7.7516e-06
1.49018e-05
-7.64008e-06
1.51517e-05
-7.50442e-06
1.53701e-05
-7.34572e-06
1.55564e-05
-7.16517e-06
1.571e-05
-6.96416e-06
1.58303e-05
-6.74416e-06
1.59167e-05
-6.50663e-06
1.59688e-05
-6.2527e-06
1.59871e-05
-5.98303e-06
1.59724e-05
-5.69803e-06
1.59264e-05
-5.39815e-06
1.58509e-05
-5.08421e-06
1.57477e-05
-4.75737e-06
1.56189e-05
-4.4187e-06
1.54672e-05
-4.06908e-06
1.52959e-05
-3.70935e-06
1.51092e-05
-3.34048e-06
1.49118e-05
-2.9637e-06
1.47095e-05
-2.58076e-06
1.4509e-05
-2.19434e-06
1.43171e-05
-1.80858e-06
1.41403e-05
-1.42954e-06
1.39824e-05
-1.06562e-06
1.38415e-05
-7.27518e-07
1.37076e-05
-4.27292e-07
1.35601e-05
-1.75339e-07
1.33821e-05
2.51146e-08
1.31642e-05
1.94065e-07
1.29134e-05
3.43532e-07
1.2641e-05
4.84529e-07
1.23604e-05
6.20531e-07
1.20804e-05
7.49055e-07
1.17979e-05
8.62663e-07
1.15054e-05
9.58187e-07
1.12015e-05
1.039e-06
1.08901e-05
1.10884e-06
1.0573e-05
1.1678e-06
1.02466e-05
1.21499e-06
9.90961e-06
1.25293e-06
9.56484e-06
1.28563e-06
9.21768e-06
1.31651e-06
8.8747e-06
1.3472e-06
8.54181e-06
1.37635e-06
8.2175e-06
1.39852e-06
7.89862e-06
1.40959e-06
7.57587e-06
1.40642e-06
7.24016e-06
1.39055e-06
6.89315e-06
1.36932e-06
6.53378e-06
1.34625e-06
6.16946e-06
1.32694e-06
5.81161e-06
1.31423e-06
5.47653e-06
1.307e-06
5.14757e-06
1.29256e-06
4.82189e-06
1.27271e-06
4.50098e-06
1.24727e-06
4.1806e-06
1.21142e-06
3.86123e-06
1.16385e-06
3.53957e-06
1.09735e-06
3.2032e-06
1.03784e-06
2.83348e-06
8.52522e-07
2.39467e-06
7.2781e-07
1.80373e-06
-2.66813e-08
1.02314e-06
2.59036e-08
1.77452e-07
2.60702e-06
-1.32525e-06
5.7165e-07
-5.27404e-06
-1.75289e-05
-8.01069e-06
-1.65883e-05
-1.00773e-05
-1.46632e-05
-1.14874e-05
-1.23394e-05
-1.24809e-05
-1.03051e-05
-1.31358e-05
-8.31262e-06
-1.3542e-05
-6.44561e-06
-1.37711e-05
-4.67369e-06
-1.38861e-05
-3.00808e-06
-1.45827e-06
1.34708e-07
-1.13218e-05
2.71361e-07
-1.14858e-05
4.12636e-07
-1.14726e-05
5.59716e-07
-1.14314e-05
7.14251e-07
-1.13756e-05
8.78361e-07
-1.1304e-05
1.05455e-06
-1.12157e-05
1.24558e-06
-1.11101e-05
1.4544e-06
-1.09866e-05
1.68431e-06
-1.0845e-05
1.93904e-06
-1.0685e-05
2.22287e-06
-1.05065e-05
2.54069e-06
-1.03095e-05
2.89807e-06
-1.00949e-05
3.30109e-06
-9.86456e-06
3.75615e-06
-9.62179e-06
4.26924e-06
-9.37196e-06
4.8449e-06
-9.1229e-06
5.48439e-06
-8.88514e-06
6.18341e-06
-8.67157e-06
6.92897e-06
-8.49615e-06
7.6975e-06
-8.37067e-06
8.46027e-06
-8.2996e-06
9.19529e-06
-8.27673e-06
9.89056e-06
-8.28876e-06
1.05421e-05
-8.32066e-06
1.11505e-05
-8.35896e-06
1.1718e-05
-8.39301e-06
1.22474e-05
-8.41497e-06
1.27414e-05
-8.41933e-06
1.32018e-05
-8.40237e-06
1.36302e-05
-8.3617e-06
1.40273e-05
-8.2959e-06
1.43936e-05
-8.20435e-06
1.4729e-05
-8.08701e-06
1.50332e-05
-7.94425e-06
1.53056e-05
-7.7768e-06
1.55455e-05
-7.58564e-06
1.57523e-05
-7.372e-06
1.59254e-05
-7.13726e-06
1.60642e-05
-6.88296e-06
1.61682e-05
-6.61064e-06
1.62373e-05
-6.32171e-06
1.62715e-05
-6.01731e-06
1.62719e-05
-5.69844e-06
1.62399e-05
-5.36607e-06
1.6177e-05
-5.02137e-06
1.60854e-05
-4.66571e-06
1.59671e-05
-4.30047e-06
1.58251e-05
-3.92701e-06
1.56624e-05
-3.54668e-06
1.54829e-05
-3.161e-06
1.52909e-05
-2.77172e-06
1.50913e-05
-2.38109e-06
1.4889e-05
-1.99204e-06
1.46889e-05
-1.60852e-06
1.4495e-05
-1.23562e-06
1.43091e-05
-8.79704e-07
1.41297e-05
-5.48144e-07
1.39509e-05
-2.4847e-07
1.37614e-05
1.41914e-08
1.35485e-05
2.37919e-07
1.33103e-05
4.32264e-07
1.30488e-05
6.05067e-07
1.27704e-05
7.62906e-07
1.24821e-05
9.08866e-07
1.21885e-05
1.04265e-06
1.18894e-05
1.16181e-06
1.15823e-05
1.26524e-06
1.1267e-05
1.35432e-06
1.09449e-05
1.43092e-06
1.06168e-05
1.49592e-06
1.02819e-05
1.54985e-06
9.94048e-06
1.59436e-06
9.59425e-06
1.63185e-06
9.24626e-06
1.6645e-06
8.90009e-06
1.69337e-06
8.55865e-06
1.71778e-06
8.22184e-06
1.73533e-06
7.88743e-06
1.744e-06
7.55102e-06
1.74283e-06
7.20874e-06
1.73283e-06
6.86076e-06
1.71729e-06
6.50821e-06
1.69879e-06
6.1549e-06
1.68024e-06
5.80583e-06
1.66329e-06
5.46577e-06
1.64705e-06
5.13092e-06
1.62739e-06
4.80054e-06
1.60309e-06
4.47431e-06
1.5735e-06
4.14598e-06
1.53975e-06
3.81217e-06
1.49765e-06
3.46542e-06
1.44409e-06
3.09496e-06
1.4083e-06
2.68715e-06
1.26032e-06
2.23899e-06
1.17598e-06
1.67735e-06
5.34953e-07
1.07265e-06
6.30601e-07
7.80846e-07
2.89883e-06
-6.67843e-08
1.41928e-06
-3.36702e-06
-1.42287e-05
-5.91283e-06
-1.40425e-05
-7.9037e-06
-1.26724e-05
-9.37622e-06
-1.08669e-05
-1.04578e-05
-9.22356e-06
-1.12286e-05
-7.54181e-06
-1.17491e-05
-5.92509e-06
-1.20763e-05
-4.34654e-06
-1.22592e-05
-2.82511e-06
-1.37888e-06
1.48681e-07
-1.14705e-05
2.99392e-07
-1.16365e-05
4.5492e-07
-1.16281e-05
6.16874e-07
-1.15934e-05
7.86914e-07
-1.15457e-05
9.67196e-07
-1.14842e-05
1.16014e-06
-1.14086e-05
1.36846e-06
-1.13184e-05
1.59511e-06
-1.12133e-05
1.84331e-06
-1.10932e-05
2.1166e-06
-1.09583e-05
2.41886e-06
-1.08087e-05
2.75429e-06
-1.06449e-05
3.12736e-06
-1.0468e-05
3.54266e-06
-1.02799e-05
4.00451e-06
-1.00836e-05
4.51642e-06
-9.88388e-06
5.08026e-06
-9.68674e-06
5.69504e-06
-9.49992e-06
6.35559e-06
-9.33212e-06
7.05138e-06
-9.19194e-06
7.76658e-06
-9.08587e-06
8.48294e-06
-9.01596e-06
9.18472e-06
-8.97851e-06
9.86128e-06
-8.96532e-06
1.05069e-05
-8.9663e-06
1.11194e-05
-8.97147e-06
1.16986e-05
-8.97216e-06
1.2245e-05
-8.96141e-06
1.27596e-05
-8.9339e-06
1.3243e-05
-8.8858e-06
1.36957e-05
-8.81442e-06
1.41179e-05
-8.71805e-06
1.45093e-05
-8.59575e-06
1.48695e-05
-8.44719e-06
1.51978e-05
-8.27256e-06
1.54934e-05
-8.07247e-06
1.57557e-05
-7.84786e-06
1.59836e-05
-7.59997e-06
1.61767e-05
-7.33028e-06
1.63341e-05
-7.04041e-06
1.64556e-05
-6.73209e-06
1.65408e-05
-6.40698e-06
1.65902e-05
-6.06666e-06
1.66044e-05
-5.71261e-06
1.65846e-05
-5.34633e-06
1.65326e-05
-4.96936e-06
1.64503e-05
-4.5834e-06
1.634e-05
-4.19018e-06
1.62044e-05
-3.79142e-06
1.60467e-05
-3.38891e-06
1.58702e-05
-2.98455e-06
1.56789e-05
-2.58044e-06
1.54769e-05
-2.17902e-06
1.52681e-05
-1.78325e-06
1.50562e-05
-1.39666e-06
1.48441e-05
-1.02347e-06
1.46329e-05
-6.68507e-07
1.44216e-05
-3.36915e-07
1.42067e-05
-3.35254e-08
1.39825e-05
2.38384e-07
1.37419e-05
4.78484e-07
1.34829e-05
6.91324e-07
1.32063e-05
8.81605e-07
1.29157e-05
1.05355e-06
1.26149e-05
1.20968e-06
1.23068e-05
1.35072e-06
1.19923e-05
1.47632e-06
1.16711e-05
1.58645e-06
1.13433e-05
1.68206e-06
1.10098e-05
1.76443e-06
1.06711e-05
1.83459e-06
1.03275e-05
1.89349e-06
9.9794e-06
1.94247e-06
9.62806e-06
1.98319e-06
9.27546e-06
2.0171e-06
8.9238e-06
2.04503e-06
8.57477e-06
2.06681e-06
8.2285e-06
2.0816e-06
7.88378e-06
2.08872e-06
7.53847e-06
2.08813e-06
7.1907e-06
2.0806e-06
6.84026e-06
2.06773e-06
6.48794e-06
2.05111e-06
6.13587e-06
2.03231e-06
5.78683e-06
2.01232e-06
5.44297e-06
1.99092e-06
5.10324e-06
1.96711e-06
4.76617e-06
1.94015e-06
4.43063e-06
1.90903e-06
4.0936e-06
1.87678e-06
3.7519e-06
1.83934e-06
3.40133e-06
1.79466e-06
3.03806e-06
1.77157e-06
2.64135e-06
1.65703e-06
2.2139e-06
1.60342e-06
1.65341e-06
1.09544e-06
1.11303e-06
1.17098e-06
1.14028e-06
2.87157e-06
6.87794e-07
1.87177e-06
-2.19732e-06
-1.13435e-05
-4.40381e-06
-1.1836e-05
-6.22966e-06
-1.08465e-05
-7.64887e-06
-9.44767e-06
-8.74214e-06
-8.13029e-06
-9.55807e-06
-6.72588e-06
-1.01372e-05
-5.346e-06
-1.05199e-05
-3.96378e-06
-1.07431e-05
-2.60188e-06
-1.28013e-06
1.60637e-07
-1.16311e-05
3.23356e-07
-1.17992e-05
4.91017e-07
-1.17957e-05
6.65597e-07
-1.17679e-05
8.48768e-07
-1.17288e-05
1.04266e-06
-1.16781e-05
1.24962e-06
-1.16156e-05
1.47228e-06
-1.1541e-05
1.71356e-06
-1.14545e-05
1.9766e-06
-1.13563e-05
2.26471e-06
-1.12464e-05
2.58138e-06
-1.11254e-05
2.93016e-06
-1.09937e-05
3.31461e-06
-1.08524e-05
3.73809e-06
-1.07033e-05
4.20345e-06
-1.0549e-05
4.71261e-06
-1.0393e-05
5.26591e-06
-1.024e-05
5.86142e-06
-1.00954e-05
6.49423e-06
-9.96493e-06
7.15606e-06
-9.85377e-06
7.83567e-06
-9.76549e-06
8.52051e-06
-9.7008e-06
9.199e-06
-9.65701e-06
9.86222e-06
-9.62854e-06
1.05042e-05
-9.60824e-06
1.11213e-05
-9.58859e-06
1.17117e-05
-9.56258e-06
1.22745e-05
-9.52418e-06
1.28091e-05
-9.46853e-06
1.33152e-05
-9.39189e-06
1.37923e-05
-9.29151e-06
1.42398e-05
-9.16552e-06
1.46568e-05
-9.01281e-06
1.50425e-05
-8.83291e-06
1.53959e-05
-8.62592e-06
1.57158e-05
-8.39238e-06
1.60012e-05
-8.13325e-06
1.62511e-05
-7.84985e-06
1.64646e-05
-7.54377e-06
1.6641e-05
-7.21681e-06
1.67798e-05
-6.87091e-06
1.68809e-05
-6.50804e-06
1.69444e-05
-6.13019e-06
1.69711e-05
-5.73931e-06
1.69621e-05
-5.33735e-06
1.69191e-05
-4.92631e-06
1.68439e-05
-4.50823e-06
1.67389e-05
-4.08519e-06
1.66068e-05
-3.65929e-06
1.64505e-05
-3.23265e-06
1.62734e-05
-2.80743e-06
1.60789e-05
-2.38596e-06
1.58707e-05
-1.97077e-06
1.56521e-05
-1.56465e-06
1.54262e-05
-1.17076e-06
1.51953e-05
-7.92539e-07
1.49604e-05
-4.33655e-07
1.47212e-05
-9.76807e-08
1.44757e-05
2.11991e-07
1.42213e-05
4.9277e-07
1.39541e-05
7.45669e-07
1.36728e-05
9.72607e-07
1.33779e-05
1.17648e-06
1.30713e-05
1.36011e-06
1.27555e-05
1.52556e-06
1.24322e-05
1.67398e-06
1.21026e-05
1.80591e-06
1.17671e-05
1.92191e-06
1.14263e-05
2.02289e-06
1.10808e-05
2.10996e-06
1.07312e-05
2.18421e-06
1.03779e-05
2.24672e-06
1.00217e-05
2.2987e-06
9.66343e-06
2.34145e-06
9.30442e-06
2.37611e-06
8.94606e-06
2.40338e-06
8.58936e-06
2.42351e-06
8.2345e-06
2.43646e-06
7.88093e-06
2.44228e-06
7.52773e-06
2.44133e-06
7.17411e-06
2.43422e-06
6.82e-06
2.42184e-06
6.46594e-06
2.40516e-06
6.1131e-06
2.38515e-06
5.76286e-06
2.36255e-06
5.41617e-06
2.3376e-06
5.07286e-06
2.31042e-06
4.7318e-06
2.2812e-06
4.39186e-06
2.24897e-06
4.05105e-06
2.21758e-06
3.70641e-06
2.18398e-06
3.35409e-06
2.14698e-06
2.9938e-06
2.13186e-06
2.60666e-06
2.04417e-06
2.21153e-06
1.99855e-06
1.68589e-06
1.62108e-06
1.19374e-06
1.66313e-06
1.37984e-06
2.68547e-06
1.12132e-06
2.1303e-06
-1.40921e-06
-8.81302e-06
-3.30034e-06
-9.94483e-06
-4.934e-06
-9.21284e-06
-6.24613e-06
-8.13554e-06
-7.29988e-06
-7.07654e-06
-8.11513e-06
-5.91063e-06
-8.71366e-06
-4.74747e-06
-9.12206e-06
-3.55539e-06
-9.36499e-06
-2.35896e-06
-1.17376e-06
1.70473e-07
-1.18016e-05
3.43052e-07
-1.19718e-05
5.20644e-07
-1.19733e-05
7.05529e-07
-1.19528e-05
8.99378e-07
-1.19227e-05
1.10426e-06
-1.1883e-05
1.32245e-06
-1.18338e-05
1.55656e-06
-1.17751e-05
1.80947e-06
-1.17074e-05
2.08423e-06
-1.1631e-05
2.38396e-06
-1.15462e-05
2.71174e-06
-1.14532e-05
3.07055e-06
-1.13525e-05
3.4632e-06
-1.12451e-05
3.89212e-06
-1.11323e-05
4.35919e-06
-1.10161e-05
4.86533e-06
-1.08992e-05
5.41013e-06
-1.07848e-05
5.9914e-06
-1.06767e-05
6.60484e-06
-1.05784e-05
7.24391e-06
-1.04928e-05
7.90029e-06
-1.04219e-05
8.56478e-06
-1.03653e-05
9.22856e-06
-1.03208e-05
9.88415e-06
-1.02841e-05
1.05258e-05
-1.02499e-05
1.11494e-05
-1.02122e-05
1.17521e-05
-1.01653e-05
1.23318e-05
-1.01039e-05
1.2887e-05
-1.00237e-05
1.34164e-05
-9.92122e-06
1.39185e-05
-9.79366e-06
1.43922e-05
-9.63915e-06
1.48359e-05
-9.45653e-06
1.52483e-05
-9.24528e-06
1.56278e-05
-9.00544e-06
1.5973e-05
-8.7376e-06
1.62825e-05
-8.4428e-06
1.65552e-05
-8.12246e-06
1.67897e-05
-7.77835e-06
1.69854e-05
-7.4125e-06
1.71416e-05
-7.02712e-06
1.72581e-05
-6.62454e-06
1.73351e-05
-6.20716e-06
1.73732e-05
-5.77738e-06
1.73735e-05
-5.33763e-06
1.73375e-05
-4.89035e-06
1.72672e-05
-4.43797e-06
1.7165e-05
-3.98296e-06
1.70334e-05
-3.52774e-06
1.68755e-05
-3.0747e-06
1.66943e-05
-2.62626e-06
1.64932e-05
-2.18485e-06
1.62754e-05
-1.75301e-06
1.60442e-05
-1.33336e-06
1.58021e-05
-9.28663e-07
1.55513e-05
-5.4173e-07
1.5293e-05
-1.7543e-07
1.50276e-05
1.6773e-07
1.47551e-05
4.84497e-07
1.44732e-05
7.74726e-07
1.41805e-05
1.03836e-06
1.38764e-05
1.27664e-06
1.35615e-05
1.49143e-06
1.32369e-05
1.68474e-06
1.29041e-05
1.85832e-06
1.25646e-05
2.01344e-06
1.22195e-05
2.15105e-06
1.18694e-05
2.27204e-06
1.15149e-05
2.37738e-06
1.11567e-05
2.46815e-06
1.07954e-05
2.54546e-06
1.04317e-05
2.61044e-06
1.00662e-05
2.66425e-06
9.69957e-06
2.70804e-06
9.33286e-06
2.74282e-06
8.96692e-06
2.76932e-06
8.60239e-06
2.78803e-06
8.2395e-06
2.79935e-06
7.87808e-06
2.8037e-06
7.51782e-06
2.80159e-06
7.15847e-06
2.79357e-06
6.80007e-06
2.78023e-06
6.44299e-06
2.76223e-06
6.08789e-06
2.74025e-06
5.73551e-06
2.71493e-06
5.38634e-06
2.68677e-06
5.04047e-06
2.65628e-06
4.69713e-06
2.62453e-06
4.35546e-06
2.59064e-06
4.01441e-06
2.55863e-06
3.67172e-06
2.52667e-06
3.32464e-06
2.49405e-06
2.97742e-06
2.47908e-06
2.60778e-06
2.4138e-06
2.24727e-06
2.35906e-06
1.76617e-06
2.10218e-06
1.31842e-06
2.11088e-06
1.57441e-06
2.42949e-06
1.44867e-06
2.25603e-06
-8.26886e-07
-6.53746e-06
-2.49441e-06
-8.27731e-06
-3.93287e-06
-7.77439e-06
-5.1183e-06
-6.95011e-06
-6.10074e-06
-6.0941e-06
-6.8837e-06
-5.12767e-06
-7.47275e-06
-4.15843e-06
-7.8842e-06
-3.14394e-06
-8.13163e-06
-2.11153e-06
-1.06698e-06
1.78094e-07
-1.19797e-05
3.5829e-07
-1.2152e-05
5.43552e-07
-1.21586e-05
7.36366e-07
-1.21456e-05
9.38394e-07
-1.21247e-05
1.15162e-06
-1.20962e-05
1.37829e-06
-1.20605e-05
1.62105e-06
-1.20179e-05
1.8828e-06
-1.19692e-05
2.16653e-06
-1.19148e-05
2.47511e-06
-1.18548e-05
2.81125e-06
-1.17893e-05
3.17742e-06
-1.17187e-05
3.57585e-06
-1.16435e-05
4.00837e-06
-1.15648e-05
4.47621e-06
-1.14839e-05
4.97978e-06
-1.14027e-05
5.51833e-06
-1.13234e-05
6.08977e-06
-1.12481e-05
6.69042e-06
-1.1179e-05
7.31509e-06
-1.11175e-05
7.95734e-06
-1.10641e-05
8.61012e-06
-1.10181e-05
9.26642e-06
-1.09771e-05
9.91993e-06
-1.09376e-05
1.05653e-05
-1.08953e-05
1.11982e-05
-1.08451e-05
1.18153e-05
-1.07823e-05
1.24136e-05
-1.07022e-05
1.29908e-05
-1.0601e-05
1.35448e-05
-1.04752e-05
1.40734e-05
-1.03223e-05
1.45747e-05
-1.01404e-05
1.50466e-05
-9.92846e-06
1.54872e-05
-9.68583e-06
1.58944e-05
-9.41265e-06
1.62663e-05
-9.10957e-06
1.66013e-05
-8.77777e-06
1.68977e-05
-8.41885e-06
1.71542e-05
-8.03481e-06
1.73696e-05
-7.62795e-06
1.75433e-05
-7.20083e-06
1.7675e-05
-6.75618e-06
1.77646e-05
-6.29683e-06
1.78129e-05
-5.82567e-06
1.78209e-05
-5.34561e-06
1.77901e-05
-4.85954e-06
1.77225e-05
-4.37036e-06
1.76204e-05
-3.88088e-06
1.74865e-05
-3.39386e-06
1.73238e-05
-2.91197e-06
1.71354e-05
-2.43781e-06
1.69244e-05
-1.9739e-06
1.66941e-05
-1.52273e-06
1.64476e-05
-1.08678e-06
1.61873e-05
-6.68441e-07
1.59156e-05
-2.70003e-07
1.56336e-05
1.06546e-07
1.53436e-05
4.57805e-07
1.50444e-05
7.83635e-07
1.47361e-05
1.08306e-06
1.44182e-05
1.35622e-06
1.40909e-05
1.60399e-06
1.37546e-05
1.82774e-06
1.34103e-05
2.02903e-06
1.30592e-05
2.20939e-06
1.27025e-05
2.37016e-06
1.23411e-05
2.51248e-06
1.19757e-05
2.63743e-06
1.1607e-05
2.74608e-06
1.12356e-05
2.83952e-06
1.08622e-05
2.91888e-06
1.04873e-05
2.9853e-06
1.01116e-05
3.03992e-06
9.73583e-06
3.08385e-06
9.36057e-06
3.11808e-06
8.98647e-06
3.14341e-06
8.61398e-06
3.16052e-06
8.24333e-06
3.17e-06
7.87454e-06
3.17249e-06
7.50757e-06
3.16855e-06
7.14243e-06
3.1587e-06
6.77924e-06
3.14342e-06
6.41828e-06
3.12319e-06
6.05997e-06
3.09856e-06
5.70478e-06
3.07011e-06
5.35307e-06
3.03847e-06
5.00504e-06
3.0043e-06