/*--------------------------------*- C++ -*----------------------------------*\
| =========                 |                                                 |
| \\      /  F ield         | OpenFOAM: The Open Source CFD Toolbox           |
|  \\    /   O peration     | Version:  v2106                                 |
|   \\  /    A nd           | Website:  www.openfoam.com                      |
|    \\/     M anipulation  |                                                 |
\*---------------------------------------------------------------------------*/
FoamFile
{
    version     2.0;
    format      ascii;
    arch        "LSB;label=32;scalar=64";
    class       volVectorField;
    location    "1.8";
    object      U;
}
// * * * * * * * * * * * * * * * * * * * * * * * * * * * * * * * * * * * * * //

dimensions      [0 1 -1 0 0 0 0];

internalField   nonuniform List<vector> 
29678
(
(-0.0897215 -1.02696e-23 7.04316e-05)
(-0.0909939 7.29655e-22 0.00023014)
(-0.0906884 1.39812e-20 0.000418781)
(-0.09012 1.05788e-19 0.000640986)
(-0.0893883 3.41647e-19 0.000861878)
(-0.0884424 3.15656e-19 0.0010766)
(-0.0872303 3.45435e-19 0.00131312)
(-0.0857539 4.7462e-19 0.00156927)
(-0.0840061 -7.71963e-19 0.001855)
(-0.0819632 2.01588e-19 0.00217665)
(-0.079588 -6.58841e-19 0.00254185)
(-0.0768292 3.56312e-19 0.00296169)
(-0.073617 -6.1557e-19 0.00345333)
(-0.0698548 1.77088e-19 0.0040461)
(-0.0654033 -5.85727e-19 0.00479571)
(-0.0600506 2.83012e-19 0.00581868)
(-0.0534572 -5.6284e-19 0.00737181)
(-0.0450549 -5.01323e-19 0.00999427)
(-0.0338471 3.08033e-19 0.0146429)
(-0.0179886 -4.61086e-19 0.022875)
(0.00619145 -4.85612e-19 0.0379668)
(0.0138845 -4.24864e-19 0.0597193)
(-0.00669262 -1.49994e-19 0.0776359)
(-0.018893 -6.92524e-20 0.0864059)
(-0.0272654 -2.34727e-19 0.0920947)
(-0.033143 1.116e-19 0.0966029)
(-0.0379209 2.67168e-19 0.10034)
(-0.0413719 -2.90842e-19 0.10352)
(-0.0441845 -7.78836e-19 0.106379)
(-0.0463047 -5.63312e-19 0.109002)
(-0.0481697 -2.17334e-19 0.111426)
(-0.049628 -2.68407e-19 0.113612)
(-0.0507063 -1.4919e-19 0.115619)
(-0.0515234 9.95113e-19 0.117466)
(-0.0520638 4.19779e-19 0.119155)
(-0.0524045 3.91364e-19 0.120693)
(-0.052539 2.6539e-19 0.122094)
(-0.052664 -1.93378e-19 0.12333)
(-0.05274 9.28761e-19 0.124315)
(-0.0526544 3.54704e-19 0.125019)
(-0.0524607 3.11582e-19 0.125432)
(-0.0521723 2.88948e-19 0.125545)
(-0.0517057 -1.14605e-19 0.125384)
(-0.0510905 2.21148e-19 0.124967)
(-0.0503904 -9.25334e-19 0.124255)
(-0.0493685 4.5925e-20 0.123246)
(-0.0480552 7.24298e-19 0.122031)
(-0.0466799 1.79221e-19 0.120631)
(-0.0452332 2.34985e-19 0.118979)
(-0.0435732 8.99506e-20 0.117052)
(-0.0416876 5.79619e-19 0.11488)
(-0.0396231 2.39558e-19 0.112466)
(-0.0372502 -2.1096e-19 0.109804)
(-0.0344401 -3.59324e-19 0.106939)
(-0.0310812 1.98805e-19 0.103965)
(-0.026919 1.83182e-19 0.101049)
(-0.0215789 7.35678e-20 0.0985378)
(-0.0141974 1.07045e-19 0.097211)
(-0.00330818 -2.57173e-20 0.098342)
(0.0107779 8.11168e-20 0.103427)
(0.00289834 1.18247e-19 0.109013)
(-0.005775 3.99334e-20 0.110794)
(-0.0107413 -1.70937e-19 0.10864)
(-0.0138019 3.08272e-19 0.104873)
(-0.0150135 4.28157e-19 0.100219)
(-0.0122914 -1.63937e-19 0.0951818)
(-0.00103967 -3.38581e-19 0.093396)
(-0.00179165 -3.95771e-19 0.0939569)
(-0.00406029 -9.33044e-20 0.0936039)
(-0.00860288 4.89452e-19 0.0907878)
(-0.00622395 6.32127e-20 0.0869179)
(-0.00164775 -2.92737e-19 0.0853372)
(-0.00455054 -7.34404e-20 0.0843525)
(-0.00789607 4.60121e-19 0.0814983)
(-0.00923287 -1.47836e-19 0.0775166)
(-0.00942869 -6.17941e-20 0.0732645)
(-0.00806459 2.69656e-19 0.0688609)
(-0.0025024 6.2525e-20 0.0662598)
(-0.0017624 -6.40238e-20 0.064839)
(0.002395 -2.69628e-20 0.0635598)
(0.0016964 1.10956e-19 0.0641449)
(-0.0059746 7.14207e-20 0.0625052)
(-0.00551716 -1.79711e-19 0.0595012)
(-0.00928476 -3.99282e-20 0.0567402)
(-0.0132573 2.2082e-19 0.0522533)
(-0.0136805 -8.34748e-20 0.0447393)
(0.00244507 -5.04968e-20 0.0430574)
(-0.00582491 2.85863e-20 0.0442456)
(-0.00382771 -6.60098e-21 0.0400487)
(-0.00013705 -3.06195e-19 0.0392025)
(-0.00252608 -1.56263e-20 0.0389725)
(-0.00318005 1.00618e-19 0.0369846)
(0.00181811 -3.25554e-20 0.0365427)
(0.00117145 -3.98483e-20 0.0391713)
(0.000419776 -2.18459e-20 0.0409751)
(0.00296329 -5.94106e-20 0.0475991)
(0.00421381 3.32601e-20 0.0555017)
(-0.0157753 -5.33604e-20 0.0847219)
(-0.586347 1.38001e-19 0.0801112)
(-0.301326 1.12004e-18 -0.425875)
(-0.301458 -4.59454e-19 -0.233544)
(-0.152494 -3.49584e-19 -0.312961)
(-0.167917 -2.19674e-19 -0.238427)
(-0.0964941 1.07368e-19 -0.253816)
(-0.094047 -4.0162e-19 -0.223887)
(-0.0542757 -3.6187e-19 -0.221419)
(-0.0427023 -7.1037e-20 -0.207037)
(-0.0176145 4.4874e-19 -0.198638)
(-0.0145796 2.9107e-20 -0.18945)
(-0.00346014 -4.01271e-19 -0.184095)
(-0.0900118 -4.24056e-23 0.00016441)
(-0.0913066 9.73433e-22 0.000493092)
(-0.0910306 2.85653e-20 0.00083272)
(-0.0904918 4.10606e-19 0.00119903)
(-0.0897698 -3.40552e-20 0.00156184)
(-0.0888404 -4.43621e-20 0.00196556)
(-0.0876635 -2.23691e-20 0.00241169)
(-0.0862374 4.90333e-19 0.00290078)
(-0.0845507 -4.3413e-19 0.00344975)
(-0.0825818 -7.53039e-20 0.00407016)
(-0.0802985 -3.19428e-19 0.00477732)
(-0.0776572 3.37823e-19 0.00559311)
(-0.0746026 -3.02468e-19 0.00654901)
(-0.0710649 -7.05716e-20 0.00769123)
(-0.0669591 -2.23771e-19 0.0090877)
(-0.0621879 2.34934e-19 0.0108333)
(-0.0566601 -1.51559e-19 0.0130426)
(-0.0503442 -2.03825e-19 0.0158499)
(-0.0433569 3.74986e-19 0.0195646)
(-0.0360497 -2.12766e-20 0.0252464)
(-0.0294032 -8.46932e-20 0.0360851)
(-0.0267876 -1.08489e-19 0.055142)
(-0.0307213 -1.48384e-19 0.073107)
(-0.0353055 6.40346e-21 0.0832206)
(-0.039361 -5.85132e-20 0.0898549)
(-0.0427774 9.74959e-20 0.0949519)
(-0.0456947 2.10459e-19 0.099143)
(-0.0480615 1.76723e-19 0.102712)
(-0.050001 2.7408e-19 0.105893)
(-0.0515421 6.86027e-20 0.108781)
(-0.0527804 -3.56591e-19 0.111425)
(-0.0537194 -7.38695e-19 0.113817)
(-0.0543825 -9.03918e-19 0.115999)
(-0.0548078 1.38812e-19 0.117994)
(-0.0550131 1.32815e-19 0.11981)
(-0.0550295 5.58586e-20 0.121451)
(-0.0548788 -9.28387e-20 0.122923)
(-0.0545994 -6.2908e-19 0.124203)
(-0.0541883 3.58672e-19 0.125233)
(-0.0536252 5.39813e-20 0.125991)
(-0.0529465 -2.24583e-20 0.126476)
(-0.052194 4.77557e-19 0.126694)
(-0.0513112 1.02086e-19 0.12665)
(-0.050268 3.72786e-19 0.126358)
(-0.0490555 4.16268e-21 0.1258)
(-0.0476228 1.55921e-19 0.124972)
(-0.0459919 -3.05697e-19 0.123927)
(-0.0442181 -1.48353e-19 0.122687)
(-0.0422963 2.28848e-19 0.121222)
(-0.0401885 1.08396e-19 0.119513)
(-0.0378761 4.70483e-19 0.117587)
(-0.0353432 2.53065e-19 0.115461)
(-0.0325401 -5.32711e-20 0.113144)
(-0.029407 -1.48905e-19 0.110685)
(-0.0258847 2.26542e-19 0.108163)
(-0.0219081 -3.59783e-20 0.105692)
(-0.017437 -6.65572e-20 0.103427)
(-0.0125274 -2.22293e-20 0.101587)
(-0.00755355 -3.41024e-20 0.10115)
(-0.00347509 1.0428e-20 0.104823)
(-0.00302586 3.67881e-20 0.110221)
(-0.00448624 -2.50555e-19 0.111988)
(-0.00583669 -3.54848e-19 0.110574)
(-0.00655549 4.70186e-19 0.107469)
(-0.00637617 6.22689e-19 0.103287)
(-0.00502077 1.34057e-19 0.09862)
(-0.0021888 -6.57355e-19 0.0963215)
(-0.000999968 2.27414e-19 0.0965491)
(-0.00123834 3.39011e-19 0.096027)
(-0.00172391 -2.84467e-19 0.0934261)
(-0.00114532 -2.76265e-19 0.0896918)
(-0.000259394 -2.38512e-19 0.0878328)
(-0.000647098 1.57385e-19 0.0867344)
(-0.00126208 2.7835e-19 0.0839956)
(-0.0015493 3.87729e-19 0.0802069)
(-0.00139261 -4.69206e-19 0.0761206)
(-0.000699301 1.7922e-19 0.0718576)
(0.000737942 3.04985e-20 0.0690469)
(0.00143587 2.03491e-19 0.0670201)
(0.00246079 -4.27672e-19 0.0657568)
(0.00197335 -1.08372e-19 0.0659299)
(7.67591e-05 6.04529e-19 0.0643655)
(-0.000777658 -3.47306e-19 0.0612151)
(-0.00219838 3.79458e-19 0.0582765)
(-0.00291204 -2.85182e-20 0.0536219)
(-0.00298914 -1.90261e-19 0.045956)
(0.000626488 -8.05749e-20 0.0438542)
(-0.000793771 1.31518e-19 0.0442568)
(-0.000243216 -2.58448e-19 0.0396553)
(0.000764999 -1.68434e-20 0.0385062)
(1.99148e-05 3.3357e-19 0.0375094)
(-0.000911018 -2.97001e-19 0.0347081)
(-0.00101418 4.73404e-20 0.033309)
(-0.0029812 1.76974e-19 0.0338923)
(-0.0070818 -3.51656e-20 0.0334537)
(-0.0130158 -2.81475e-20 0.035553)
(-0.0278392 -9.48791e-20 0.0415026)
(-0.047072 -4.92825e-20 0.0577862)
(-0.0827557 7.16153e-21 0.0549505)
(-0.131332 4.68048e-18 -0.358109)
(-0.322243 -1.0628e-19 -0.215276)
(-0.202721 -2.99462e-19 -0.25144)
(-0.185712 -1.89283e-19 -0.205163)
(-0.131038 6.86033e-20 -0.214179)
(-0.108164 1.82079e-21 -0.196919)
(-0.0779559 3.79543e-20 -0.19514)
(-0.0575465 -5.62794e-20 -0.185752)
(-0.0378761 -4.03735e-20 -0.179118)
(-0.023579 -4.36409e-19 -0.172588)
(-0.0104887 1.25456e-19 -0.168781)
(-0.0904344 -7.79087e-23 0.000255668)
(-0.091734 -2.42824e-22 0.00076485)
(-0.0914714 -2.68052e-21 0.00129495)
(-0.090954 -6.35254e-20 0.00184715)
(-0.0902597 -4.2943e-19 0.00241384)
(-0.0893696 -3.81396e-19 0.00304031)
(-0.088248 -3.81328e-19 0.00371505)
(-0.0868881 -3.2516e-19 0.00445317)
(-0.08528 6.27838e-19 0.00527466)
(-0.0834062 -2.34163e-19 0.00619652)
(-0.0812399 5.62738e-19 0.00724079)
(-0.0787466 -2.70461e-19 0.00843742)
(-0.0758834 4.77532e-19 0.00982769)
(-0.0726003 -1.69886e-19 0.0114695)
(-0.0688397 4.89408e-19 0.0134456)
(-0.0645378 -2.22678e-19 0.0158776)
(-0.0596215 3.926e-19 0.0189542)
(-0.0539913 3.72689e-19 0.0230025)
(-0.0475154 -2.4885e-19 0.0285953)
(-0.0402033 3.17454e-19 0.036433)
(-0.0328091 3.56172e-19 0.0468142)
(-0.0283478 3.43483e-19 0.0588203)
(-0.0305674 6.63057e-20 0.0698177)
(-0.0345242 1.3422e-19 0.0783824)
(-0.0385131 2.49729e-19 0.0851838)
(-0.0420819 1.93594e-19 0.090814)
(-0.0452092 -2.18426e-19 0.0956076)
(-0.0478247 -2.60918e-19 0.0997799)
(-0.0499985 2.90035e-19 0.103489)
(-0.0517597 3.17024e-19 0.106834)
(-0.0531732 3.7457e-19 0.109876)
(-0.0542569 4.17884e-19 0.112647)
(-0.0550309 8.49784e-20 0.115177)
(-0.0555267 -3.51555e-19 0.117486)
(-0.0557693 -2.1931e-19 0.119583)
(-0.0557869 2.38808e-19 0.121473)
(-0.0556044 -1.28582e-19 0.123152)
(-0.0552494 -6.72272e-19 0.124609)
(-0.0547301 2.62908e-19 0.125819)
(-0.0540437 -1.15327e-19 0.126772)
(-0.0532059 -7.17185e-19 0.127464)
(-0.0522399 -2.62484e-19 0.127882)
(-0.0511373 1.68126e-19 0.128019)
(-0.0498827 -1.09355e-19 0.127876)
(-0.0484654 -4.05293e-19 0.127459)
(-0.0468645 4.93827e-19 0.126782)
(-0.0450893 -4.70898e-19 0.125874)
(-0.0431721 -7.30209e-19 0.124751)
(-0.0411187 -3.0796e-19 0.123406)
(-0.0389083 1.46385e-19 0.121842)
(-0.0365253 -1.1914e-20 0.120081)
(-0.0339578 -4.89279e-19 0.118147)
(-0.0311745 -1.38424e-21 0.116074)
(-0.0281341 -1.40869e-19 0.113922)
(-0.0247961 -3.65217e-19 0.111782)
(-0.021117 1.15302e-19 0.109795)
(-0.0170654 2.61294e-19 0.10817)
(-0.0126268 -3.08847e-19 0.107273)
(-0.00784777 -4.68481e-19 0.107511)
(-0.00358489 -1.81085e-19 0.108795)
(-0.00258893 6.81665e-19 0.110019)
(-0.0035134 5.28426e-20 0.110049)
(-0.00453147 -7.57407e-19 0.108731)
(-0.00512106 2.12807e-19 0.106487)
(-0.0049413 8.23482e-20 0.103738)
(-0.00376582 -4.78313e-19 0.100926)
(-0.00155247 -1.40927e-19 0.0986832)
(-0.000446843 3.35217e-19 0.0971258)
(-0.000462405 5.70225e-20 0.095527)
(-0.000744467 -4.65118e-19 0.0932587)
(-0.000307028 -1.03396e-19 0.0906747)
(0.000343099 2.51536e-19 0.0883464)
(5.93985e-05 2.53792e-20 0.0860969)
(-0.000447475 -3.2607e-19 0.0833987)
(-0.000680462 2.1781e-19 0.0803569)
(-0.000522258 7.07731e-21 0.077197)
(0.000100739 -2.74098e-19 0.074113)
(0.00135545 -6.50788e-20 0.0714264)
(0.00208943 2.76463e-19 0.0690975)
(0.00298676 -1.65367e-20 0.0669978)
(0.00266029 -2.00392e-19 0.0653047)
(0.00106539 -1.97173e-20 0.0629448)
(0.000355057 1.42202e-19 0.0601067)
(-0.000886073 1.07787e-20 0.0569223)
(-0.00147195 -2.06825e-19 0.0533043)
(-0.00145805 1.5913e-19 0.0493177)
(0.00163201 -5.67115e-21 0.0464112)
(0.000787073 -1.49369e-19 0.0444848)
(0.00121848 -1.36345e-20 0.0417799)
(0.00200178 1.44242e-19 0.0396765)
(0.00177348 8.55058e-21 0.038058)
(0.00164428 -1.57866e-19 0.0360987)
(0.00190122 6.40132e-20 0.0342424)
(0.00118116 3.33514e-20 0.0328976)
(-0.00137509 -1.21379e-19 0.0307298)
(-0.00508537 6.82543e-20 0.0276267)
(-0.0181438 -8.30111e-20 0.0234832)
(-0.0359405 2.49762e-19 0.0129763)
(-0.0672096 -9.02033e-20 -0.00657663)
(-0.0856766 -3.00624e-20 -0.0628809)
(-0.301771 4.64993e-19 -0.130147)
(-0.205207 4.49775e-20 -0.160619)
(-0.177522 1.70542e-19 -0.162123)
(-0.13003 7.18087e-21 -0.173836)
(-0.105085 2.82649e-19 -0.169764)
(-0.0771329 6.89191e-20 -0.170463)
(-0.0564145 -6.53333e-20 -0.167087)
(-0.0374947 -1.7069e-19 -0.164152)
(-0.023209 2.18811e-19 -0.161023)
(-0.0104531 2.86258e-19 -0.158652)
(-0.0910321 -5.3698e-23 0.000342651)
(-0.0923414 -1.29386e-22 0.00102452)
(-0.092103 -2.38251e-22 0.00173887)
(-0.0916145 -3.4713e-19 0.00246898)
(-0.0909588 3.51059e-19 0.00322681)
(-0.0901168 3.91178e-19 0.00405491)
(-0.0890628 4.02774e-19 0.00493978)
(-0.0877872 -1.89605e-20 0.00590561)
(-0.0862814 -3.53554e-19 0.00697433)
(-0.0845315 3.13762e-19 0.00816692)
(-0.0825173 -2.55646e-19 0.00950974)
(-0.0802137 -4.50669e-20 0.0110373)
(-0.0775916 -3.24822e-19 0.0127949)
(-0.0746202 2.88284e-19 0.0148435)
(-0.0712708 -1.71672e-19 0.0172651)
(-0.0675229 -3.13649e-20 0.0201712)
(-0.0633784 -3.3049e-19 0.023713)
(-0.0588945 -1.52216e-19 0.0280862)
(-0.054273 -2.59395e-19 0.0334997)
(-0.0500134 -3.80504e-19 0.0401445)
(-0.046898 -2.58724e-19 0.0482038)
(-0.0456684 -1.34208e-19 0.0576101)
(-0.0464736 -8.37246e-20 0.0671758)
(-0.048196 2.34521e-19 0.0755707)
(-0.0501828 -1.2512e-19 0.0826158)
(-0.0521344 4.83657e-19 0.0885862)
(-0.0539186 2.14778e-19 0.0937362)
(-0.0554564 -5.34726e-19 0.0982555)
(-0.0567274 -7.47139e-19 0.102287)
(-0.0577254 -4.2665e-19 0.105926)
(-0.0584614 -5.66236e-20 0.109237)
(-0.0589428 -1.89013e-19 0.112258)
(-0.0591808 2.48179e-19 0.115019)
(-0.059191 9.80839e-19 0.117539)
(-0.0589883 2.38155e-19 0.119828)
(-0.0585892 3.69189e-19 0.121892)
(-0.0580086 2.72355e-19 0.123726)
(-0.0572598 -1.99625e-19 0.125324)
(-0.0563511 7.13571e-19 0.126673)
(-0.0552909 4.07882e-19 0.127766)
(-0.0540953 2.67609e-19 0.128598)
(-0.0527818 5.78682e-20 0.129157)
(-0.0513496 1.29296e-19 0.129436)
(-0.0497851 2.31166e-19 0.129434)
(-0.0480749 -7.04806e-19 0.12916)
(-0.0462069 4.69244e-19 0.12863)
(-0.0441853 7.44556e-19 0.127862)
(-0.0420246 2.25643e-19 0.126871)
(-0.0397267 6.10713e-20 0.125665)
(-0.0372817 9.02351e-20 0.124256)
(-0.0346798 5.63906e-19 0.122668)
(-0.0319117 1.09487e-19 0.120931)
(-0.0289615 -4.05527e-19 0.119085)
(-0.0258132 -3.40781e-19 0.117187)
(-0.02246 2.30142e-19 0.115317)
(-0.0189146 5.32257e-20 0.113575)
(-0.0152308 1.3708e-19 0.112089)
(-0.0115417 1.00469e-19 0.110988)
(-0.00817973 1.62153e-19 0.110376)
(-0.0056136 3.39765e-20 0.110379)
(-0.00405764 4.04545e-19 0.110628)
(-0.00330476 4.44243e-20 0.11036)
(-0.00283995 -5.93601e-19 0.10923)
(-0.00228763 2.60026e-19 0.10733)
(-0.0014823 4.57294e-19 0.104904)
(-0.000354435 -3.19455e-19 0.102288)
(0.000965182 -4.71354e-19 0.0999582)
(0.00192683 -4.45457e-19 0.0980368)
(0.00250354 -7.42364e-20 0.0961347)
(0.00294887 3.52923e-19 0.0938436)
(0.00343011 9.53199e-20 0.0913072)
(0.00385573 -3.08311e-19 0.0888813)
(0.00405796 -7.98062e-20 0.0864627)
(0.00416059 2.64363e-19 0.0837513)
(0.00428613 -1.32709e-19 0.0807691)
(0.00450793 -6.11026e-20 0.0776741)
(0.00486668 2.09869e-19 0.0746189)
(0.00533695 7.88714e-20 0.0718469)
(0.00569071 -2.84518e-19 0.0693499)
(0.00588529 -2.11662e-20 0.0670707)
(0.00568954 2.15727e-19 0.0650131)
(0.00520328 7.34994e-20 0.0626178)
(0.00482151 -2.01853e-19 0.059821)
(0.00436841 -1.74992e-20 0.0567178)
(0.00408784 2.20167e-19 0.0532199)
(0.0040917 -2.13146e-19 0.0494576)
(0.00460714 -2.67274e-20 0.0464603)
(0.00437437 1.3455e-19 0.044099)
(0.00422596 2.81514e-20 0.0414277)
(0.00409581 -1.48399e-19 0.0390336)
(0.00360131 4.45734e-21 0.0368265)
(0.00296112 1.30054e-19 0.0345508)
(0.00203719 -8.92131e-20 0.0323344)
(0.000761801 5.13504e-21 0.0305698)
(-0.00183991 6.66989e-20 0.0285489)
(-0.00484132 1.82397e-20 0.025486)
(-0.0136305 6.22154e-20 0.0230641)
(-0.0188227 9.45205e-20 0.0135244)
(-0.00575409 2.53911e-19 0.000159866)
(-0.0488857 2.70054e-19 -0.0517515)
(-0.232558 4.75219e-19 -0.0885679)
(-0.189804 -2.98763e-20 -0.120755)
(-0.163921 -1.28686e-19 -0.128429)
(-0.128536 2.36353e-19 -0.141565)
(-0.104296 -3.18399e-20 -0.144233)
(-0.0805486 -1.93314e-19 -0.147226)
(-0.0604839 -9.06476e-20 -0.147083)
(-0.0424606 3.30338e-19 -0.146196)
(-0.0266824 6.04531e-20 -0.144863)
(-0.0126844 -2.63804e-19 -0.143809)
(-0.0917968 -9.77511e-24 0.00042373)
(-0.093119 9.06837e-22 0.00126683)
(-0.0929118 2.47185e-20 0.0021484)
(-0.0924561 2.52154e-20 0.0030437)
(-0.0918468 -3.32952e-20 0.00398025)
(-0.0910638 2.05068e-21 0.00499353)
(-0.0900896 4.05272e-20 0.00607261)
(-0.0889142 3.81547e-20 0.00724607)
(-0.0875298 1.4971e-20 0.00853767)
(-0.0859262 3.47599e-21 0.00997101)
(-0.0840898 1.27759e-19 0.0115747)
(-0.082004 -3.4097e-21 0.0133847)
(-0.079652 2.33377e-20 0.0154462)
(-0.0770191 -3.341e-21 0.0178168)
(-0.0740977 1.57646e-19 0.0205695)
(-0.0708947 -3.9943e-21 0.0237961)
(-0.0674441 1.2883e-19 0.0276091)
(-0.0638259 6.64567e-20 0.0321376)
(-0.0601906 -1.36608e-19 0.0375108)
(-0.056763 9.66075e-20 0.0438385)
(-0.0538627 1.06278e-19 0.0511612)
(-0.0519599 3.9462e-20 0.0592055)
(-0.0515064 -2.30944e-19 0.0672352)
(-0.0521417 2.37515e-19 0.0746028)
(-0.0533461 6.05068e-22 0.0811498)
(-0.0547659 4.00452e-19 0.0869586)
(-0.0561928 3.07517e-19 0.0921471)
(-0.0574985 -1.78202e-19 0.0968198)
(-0.0586154 1.63873e-19 0.101062)
(-0.0595079 1.22728e-19 0.104939)
(-0.0601625 -1.55573e-19 0.108496)
(-0.0605741 -6.72342e-19 0.111766)
(-0.0607441 -4.98131e-19 0.11477)
(-0.0606798 3.2527e-19 0.117523)
(-0.0603913 4.13087e-20 0.120032)
(-0.0598905 2.96019e-20 0.122301)
(-0.0591896 -3.65786e-20 0.124325)
(-0.0583004 -5.43054e-19 0.126101)
(-0.0572331 3.45762e-19 0.127619)
(-0.0559979 1.1664e-19 0.128875)
(-0.0546076 2.95927e-20 0.129863)
(-0.053075 8.05676e-20 0.130577)
(-0.0514052 2.03532e-20 0.131011)
(-0.0495952 1.36588e-19 0.131163)
(-0.0476407 -7.81631e-20 0.131041)
(-0.0455391 4.59159e-19 0.130657)
(-0.0432955 -1.3748e-19 0.130028)
(-0.0409206 -1.89995e-20 0.129168)
(-0.03842 8.30575e-20 0.12809)
(-0.0357935 4.34622e-20 0.126813)
(-0.0330399 5.07973e-19 0.125361)
(-0.0301586 1.78422e-19 0.123765)
(-0.0271485 -3.24461e-19 0.122064)
(-0.0240118 -1.51961e-19 0.120309)
(-0.0207611 3.31514e-19 0.118563)
(-0.0174263 -2.3623e-19 0.116903)
(-0.0140653 -6.78453e-20 0.115415)
(-0.0107761 -2.33895e-20 0.114184)
(-0.00769909 2.74621e-22 0.113269)
(-0.00502306 -1.015e-19 0.112638)
(-0.00307697 7.66999e-22 0.112013)
(-0.00186248 -4.23598e-20 0.11104)
(-0.00102554 -4.02666e-19 0.109581)
(-0.000279668 3.62458e-19 0.107664)
(0.000541682 5.46775e-19 0.105461)
(0.00152158 1.04506e-19 0.103156)
(0.0026008 -3.84643e-19 0.100894)
(0.00350043 2.23945e-19 0.0986995)
(0.00412757 9.66343e-20 0.0964647)
(0.0046027 1.75091e-20 0.0940841)
(0.00505562 1.54903e-20 0.0915863)
(0.00544682 -3.69749e-19 0.089044)
(0.00567027 -3.96577e-20 0.0864383)
(0.00579585 3.04129e-19 0.0837112)
(0.00593147 3.60875e-19 0.0808751)
(0.00614822 -5.01925e-19 0.0779859)
(0.00647975 1.66847e-19 0.0751128)
(0.00690581 3.15441e-20 0.0723414)
(0.00725346 -9.20744e-21 0.0696965)
(0.00746115 1.68415e-22 0.0671478)
(0.00738429 -1.35937e-20 0.0646304)
(0.00702743 3.23986e-20 0.0619608)
(0.0066509 -2.41064e-19 0.0591147)
(0.00624927 3.35635e-19 0.0561467)
(0.00601307 -1.16223e-19 0.0530722)
(0.00603042 -2.22022e-19 0.0499809)
(0.00640308 -3.91252e-20 0.0471196)
(0.00643607 1.4911e-19 0.0444826)
(0.00644092 3.04561e-20 0.0418672)
(0.00644935 -1.42088e-20 0.0393777)
(0.00628225 1.19085e-19 0.0369746)
(0.00603651 -2.15887e-19 0.0345778)
(0.00559452 4.57812e-20 0.0320192)
(0.00502234 2.52364e-20 0.0292611)
(0.00301962 -4.48064e-20 0.0266791)
(0.000924081 -1.52362e-20 0.0216366)
(-0.00774651 -2.95786e-20 0.0192344)
(-0.0105807 -8.14788e-21 0.00952385)
(0.00889754 -7.50301e-21 0.00284381)
(-0.0150438 3.98483e-19 -0.0134668)
(-0.199512 4.7351e-20 -0.0535854)
(-0.171622 -2.43809e-19 -0.0842349)
(-0.148073 -6.82989e-20 -0.0988239)
(-0.119775 1.42283e-19 -0.113635)
(-0.097743 1.47795e-19 -0.120783)
(-0.0767213 -5.71065e-20 -0.126085)
(-0.0580603 -3.07017e-21 -0.128655)
(-0.0411412 4.76001e-20 -0.1299)
(-0.0260148 -3.87512e-19 -0.13022)
(-0.0124602 6.96506e-20 -0.130189)
(-0.0927157 -9.01757e-25 0.000497837)
(-0.0940527 1.38945e-21 0.00148928)
(-0.0938806 3.37446e-20 0.00252033)
(-0.0934645 8.34326e-20 0.0035675)
(-0.092908 -1.15627e-19 0.00466774)
(-0.0921933 -7.07616e-20 0.00585024)
(-0.0913089 -7.23339e-21 0.00710656)
(-0.0902455 -7.32011e-21 0.00846712)
(-0.0889967 2.69957e-19 0.00995666)
(-0.0875554 -4.74056e-20 0.0116002)
(-0.0859135 3.29786e-19 0.0134272)
(-0.0840619 2.80989e-20 0.0154728)
(-0.081993 1.86424e-19 0.0177794)
(-0.0797039 -7.9327e-20 0.020398)
(-0.0772007 2.83893e-19 0.0233894)
(-0.0745049 1.29775e-20 0.0268246)
(-0.0716626 4.50092e-20 0.0307818)
(-0.0687563 3.68531e-19 0.0353401)
(-0.0659162 -2.12615e-19 0.0405634)
(-0.063328 -9.13112e-20 0.0464765)
(-0.0612416 1.18821e-19 0.0530201)
(-0.0599512 2.34918e-19 0.0599862)
(-0.0595815 -5.08517e-20 0.0670135)
(-0.0599117 1.7794e-19 0.07375)
(-0.0606365 -2.35579e-20 0.0800112)
(-0.0615232 3.97106e-19 0.0857603)
(-0.0624187 6.20129e-19 0.0910261)
(-0.0632238 -4.34589e-19 0.0958566)
(-0.0638773 -4.69978e-19 0.100301)
(-0.0643425 -3.92295e-20 0.104401)
(-0.0645994 3.54263e-19 0.10819)
(-0.0646377 -9.44096e-20 0.111692)
(-0.0644543 2.75226e-20 0.114923)
(-0.0640514 6.88895e-19 0.117896)
(-0.0634344 2.38882e-19 0.120615)
(-0.0626109 1.24903e-19 0.123081)
(-0.0615899 1.23766e-19 0.125292)
(-0.060381 -5.94231e-19 0.127244)
(-0.0589943 2.56615e-19 0.12893)
(-0.0574411 1.06099e-19 0.130347)
(-0.055734 -8.18404e-21 0.131488)
(-0.0538851 5.01437e-20 0.13235)
(-0.0519025 -5.94527e-20 0.132927)
(-0.0497894 6.09253e-21 0.13322)
(-0.0475464 -9.28497e-19 0.133235)
(-0.0451751 3.20797e-19 0.13298)
(-0.0426808 5.93308e-19 0.132472)
(-0.0400721 1.14591e-19 0.131724)
(-0.0373566 6.77827e-20 0.130755)
(-0.034539 -1.55865e-20 0.129582)
(-0.0316237 4.40694e-19 0.128232)
(-0.0286158 1.26893e-19 0.126735)
(-0.0255224 -3.72032e-19 0.125128)
(-0.0223544 -4.78227e-19 0.123455)
(-0.0191314 1.70552e-19 0.121767)
(-0.0158869 1.34629e-20 0.120122)
(-0.0126747 -3.42891e-20 0.118574)
(-0.00957702 -1.10877e-20 0.117168)
(-0.00670926 2.87706e-20 0.115914)
(-0.00421362 7.85158e-22 0.114767)
(-0.00221516 6.76038e-20 0.113602)
(-0.000661515 6.72252e-21 0.112262)
(0.000608265 -4.05581e-19 0.110635)
(0.00176412 2.80533e-19 0.108695)
(0.0028985 4.62702e-19 0.106514)
(0.00402339 -2.75053e-19 0.1042)
(0.00509405 -4.83571e-19 0.101852)
(0.00602718 -4.80724e-19 0.0995077)
(0.00680245 -1.18035e-19 0.0971216)
(0.00746112 3.47716e-19 0.0946415)
(0.00803575 9.334e-20 0.092074)
(0.00852164 -3.29321e-19 0.0894536)
(0.00890796 -1.19539e-19 0.0867753)
(0.00921925 2.68712e-19 0.0840122)
(0.0094904 -1.55697e-19 0.0811686)
(0.00975075 -1.22248e-19 0.0782789)
(0.0100156 2.5106e-19 0.0753926)
(0.0102722 8.3372e-20 0.0725677)
(0.0104657 -2.54946e-19 0.0698257)
(0.0105558 -8.76897e-20 0.0671467)
(0.010511 2.14631e-19 0.0644863)
(0.0103554 4.37861e-20 0.0617549)
(0.0101743 -2.4116e-19 0.0589134)
(0.0099842 -7.70847e-20 0.0559694)
(0.00982777 2.13086e-19 0.0529426)
(0.00972736 -1.95818e-19 0.049909)
(0.00967481 -8.75074e-20 0.0470047)
(0.00952232 1.49908e-19 0.0442494)
(0.00930998 2.85686e-20 0.0415321)
(0.00903976 -1.42866e-19 0.0388434)
(0.00865059 -2.58047e-20 0.0361762)
(0.00814038 1.12138e-19 0.0335508)
(0.0074424 -8.26525e-20 0.0308766)
(0.0067764 -1.02615e-20 0.0279173)
(0.00511362 1.58602e-20 0.0258934)
(0.00393823 1.78434e-20 0.0207515)
(-0.00252752 1.01831e-20 0.0199902)
(-0.00235849 6.58563e-21 0.00909841)
(0.0195649 -9.52223e-20 0.00706669)
(0.000768619 -1.04268e-19 -0.00269622)
(-0.160733 1.29777e-19 -0.0232454)
(-0.149169 -1.8282e-19 -0.0611859)
(-0.130695 1.32636e-19 -0.0753346)
(-0.108875 2.82538e-19 -0.0910576)
(-0.0903042 9.24368e-21 -0.100499)
(-0.0723846 -3.28797e-19 -0.107342)
(-0.0558181 -8.30818e-20 -0.111512)
(-0.0402764 2.70238e-19 -0.114052)
(-0.0258121 7.72951e-20 -0.115412)
(-0.0124791 -2.73409e-19 -0.116114)
(-0.0937745 -1.33434e-23 0.000564311)
(-0.0951275 1.67069e-21 0.00168984)
(-0.0949933 3.77871e-20 0.00285308)
(-0.0946232 1.42606e-19 0.00403676)
(-0.0941258 -4.82737e-20 0.00528414)
(-0.0934876 -1.46935e-20 0.00661773)
(-0.0927007 2.10571e-20 0.00803204)
(-0.0917577 3.64388e-20 0.00955761)
(-0.0906538 -3.43032e-19 0.0112193)
(-0.0893849 -3.96652e-19 0.0130427)
(-0.0879471 -2.28168e-19 0.0150568)
(-0.0863368 -1.30512e-20 0.0172949)
(-0.084553 -2.99747e-19 0.0197951)
(-0.0826002 -3.05525e-19 0.0226011)
(-0.0804916 -1.61947e-19 0.0257614)
(-0.0782545 -1.48364e-20 0.0293283)
(-0.0759361 -1.92633e-19 0.0333538)
(-0.0736087 -1.6193e-20 0.037883)
(-0.0713747 1.3525e-20 0.0429413)
(-0.0693661 -2.32841e-19 0.0485174)
(-0.067734 -1.52852e-19 0.0545408)
(-0.0666151 -1.23923e-19 0.0608618)
(-0.0660607 -3.82187e-19 0.0672648)
(-0.0659875 -1.72283e-19 0.0735346)
(-0.0662381 -1.55148e-20 0.0795225)
(-0.0666583 -1.58256e-20 0.0851574)
(-0.0671256 9.92571e-19 0.090424)
(-0.0675493 -9.26597e-21 0.0953349)
(-0.0678653 -3.14895e-19 0.099913)
(-0.0680296 -2.01182e-19 0.104182)
(-0.0680135 -1.72021e-19 0.108161)
(-0.0677986 -6.97538e-19 0.111866)
(-0.067375 -7.64712e-19 0.115306)
(-0.0667385 2.88103e-19 0.118488)
(-0.0658899 3.71426e-19 0.121412)
(-0.0648328 1.04986e-19 0.124077)
(-0.0635738 7.68003e-19 0.126481)
(-0.0621208 -2.19692e-19 0.128616)
(-0.0604838 -1.12604e-19 0.130478)
(-0.0586739 2.89759e-19 0.132062)
(-0.0567034 6.21647e-20 0.133362)
(-0.0545845 3.99174e-19 0.134375)
(-0.0523275 1.09698e-19 0.135096)
(-0.0499401 3.8146e-19 0.135526)
(-0.0474283 -2.72761e-19 0.13567)
(-0.0447982 1.54282e-19 0.135537)
(-0.0420581 3.74912e-19 0.135139)
(-0.0392182 1.18334e-19 0.134493)
(-0.0362887 3.33837e-19 0.133615)
(-0.0332788 1.32217e-19 0.132527)
(-0.0301979 6.39365e-19 0.131253)
(-0.0270563 4.20762e-19 0.129822)
(-0.0238667 6.26233e-21 0.128268)
(-0.0206461 4.07895e-19 0.126628)
(-0.0174185 5.06759e-19 0.124945)
(-0.0142186 -4.3702e-19 0.12326)
(-0.0110945 -1.33971e-19 0.121609)
(-0.0081102 2.3269e-20 0.120019)
(-0.00534165 3.10753e-20 0.118491)
(-0.00286455 1.20035e-20 0.116996)
(-0.000734045 3.34624e-20 0.115463)
(0.00106278 3.86933e-19 0.113797)
(0.00258563 -2.7315e-19 0.111929)
(0.00393403 -4.71209e-20 0.109854)
(0.00517856 3.48346e-19 0.107606)
(0.00634888 2.2766e-20 0.105241)
(0.00743457 -3.56451e-19 0.102812)
(0.00839951 -1.09903e-19 0.100341)
(0.00922811 3.53315e-20 0.0978189)
(0.00993648 3.53989e-19 0.095228)
(0.0105452 8.82212e-20 0.0925714)
(0.0110588 -6.46617e-19 0.0898615)
(0.0114767 -6.07634e-20 0.0870997)
(0.0118156 6.18345e-19 0.0842819)
(0.0121028 1.16447e-19 0.0814148)
(0.0123624 -4.74236e-19 0.0785178)
(0.012606 4.88242e-19 0.0756188)
(0.012824 1.06887e-19 0.072748)
(0.0129837 -2.6279e-19 0.0699196)
(0.0130596 1.18977e-20 0.0671241)
(0.0130366 2.40065e-19 0.0643353)
(0.0129253 4.46043e-20 0.0615135)
(0.012766 -4.13417e-19 0.0586392)
(0.0125864 3.61341e-19 0.055719)
(0.0124239 9.10725e-20 0.0527715)
(0.0122992 -3.44651e-19 0.0498347)
(0.0122015 1.42358e-20 0.0469561)
(0.0120652 3.23342e-19 0.0441499)
(0.0118828 3.82861e-20 0.0413841)
(0.0116625 -1.33252e-19 0.0386581)
(0.0114126 1.48701e-19 0.0359373)
(0.0111027 -5.32778e-20 0.0332157)
(0.0106736 -1.59712e-21 0.0304693)
(0.0103284 4.72049e-20 0.0270032)
(0.00890819 4.78638e-21 0.02512)
(0.00798442 1.76661e-20 0.0190029)
(0.00200317 4.10806e-20 0.0192596)
(0.0027646 -2.07605e-20 0.00757052)
(0.0233515 -6.22186e-20 0.00920291)
(0.00900373 1.26308e-18 0.00602652)
(-0.131455 -2.20685e-19 -0.00793421)
(-0.127043 -2.51809e-19 -0.0445245)
(-0.113636 4.58681e-20 -0.0572843)
(-0.0966188 2.32696e-19 -0.0727808)
(-0.0814003 -2.48544e-20 -0.083228)
(-0.0661363 -2.57125e-19 -0.0908792)
(-0.0516323 -3.85241e-20 -0.0960952)
(-0.0376615 3.24165e-19 -0.099538)
(-0.0243602 -3.04895e-19 -0.101636)
(-0.0118526 -1.6897e-19 -0.102821)
(-0.0949579 -5.0678e-23 0.000622645)
(-0.0963279 1.58512e-21 0.00186669)
(-0.0962334 4.24276e-20 0.0031449)
(-0.0959149 4.03222e-19 0.00444834)
(-0.0954825 -3.50555e-20 0.00582472)
(-0.094927 -5.81842e-20 0.00728967)
(-0.0942433 -6.11348e-21 0.00884096)
(-0.0934264 -6.73695e-21 0.0105083)
(-0.0924733 3.45341e-19 0.0123163)
(-0.0913824 6.16214e-20 0.01429)
(-0.0901528 3.48441e-19 0.0164578)
(-0.0887848 1.17251e-19 0.0188505)
(-0.0872814 3.23572e-19 0.0215017)
(-0.0856505 1.4485e-19 0.0244477)
(-0.0839083 3.33353e-19 0.0277263)
(-0.0820821 1.24337e-19 0.031375)
(-0.0802137 1.91523e-19 0.0354268)
(-0.0783619 4.15239e-19 0.039905)
(-0.076603 2.59503e-19 0.0448139)
(-0.0750271 1.33388e-19 0.0501287)
(-0.0737269 2.25718e-19 0.0557847)
(-0.0727758 3.03771e-19 0.0616736)
(-0.0721976 -1.649e-19 0.0676541)
(-0.0719493 -3.64704e-19 0.0735829)
(-0.0719419 2.53867e-19 0.0793467)
(-0.0720712 -4.47912e-19 0.0848745)
(-0.0722414 6.6418e-19 0.0901321)
(-0.0723738 5.0752e-19 0.0951092)
(-0.0724083 5.13742e-20 0.0998079)
(-0.0723006 1.84185e-19 0.104235)
(-0.0720197 3.07514e-19 0.108398)
(-0.0715447 -7.813e-20 0.112302)
(-0.0708626 -5.06017e-19 0.11595)
(-0.0699667 -5.91444e-19 0.119342)
(-0.0688554 -5.84317e-20 0.122476)
(-0.0675308 -1.23974e-19 0.125346)
(-0.0659984 7.76049e-20 0.127948)
(-0.0642658 1.42973e-19 0.130274)
(-0.0623433 -5.05806e-19 0.132319)
(-0.0602425 -1.72669e-19 0.134074)
(-0.0579767 -1.72558e-19 0.135536)
(-0.0555592 5.90477e-20 0.136699)
(-0.0530026 -1.20422e-20 0.13756)
(-0.0503184 2.44356e-22 0.138122)
(-0.047517 3.44028e-19 0.138386)
(-0.0446085 -4.04379e-19 0.138361)
(-0.0416045 -1.6791e-19 0.13806)
(-0.0385175 -1.43399e-19 0.137498)
(-0.0353603 2.99295e-20 0.136693)
(-0.0321457 5.45332e-20 0.135664)
(-0.028887 -3.39839e-19 0.134437)
(-0.0255984 -2.86307e-20 0.133039)
(-0.0222963 4.86683e-19 0.131501)
(-0.0190005 5.0833e-19 0.129855)
(-0.0157361 -7.6666e-20 0.128136)
(-0.0125348 3.02274e-20 0.126376)
(-0.00943645 -8.06881e-21 0.124602)
(-0.00648796 -8.27285e-21 0.122831)
(-0.00374049 -5.0951e-20 0.121066)
(-0.00124366 -1.05112e-20 0.119287)