/*--------------------------------*- C++ -*----------------------------------*\
| =========                 |                                                 |
| \\      /  F ield         | OpenFOAM: The Open Source CFD Toolbox           |
|  \\    /   O peration     | Version:  v2106                                 |
|   \\  /    A nd           | Website:  www.openfoam.com                      |
|    \\/     M anipulation  |                                                 |
\*---------------------------------------------------------------------------*/
FoamFile
{
    version     2.0;
    format      ascii;
    arch        "LSB;label=32;scalar=64";
    class       volScalarField;
    location    "1.9";
    object      k;
}
// * * * * * * * * * * * * * * * * * * * * * * * * * * * * * * * * * * * * * //

dimensions      [0 2 -2 0 0 0 0];

internalField   nonuniform List<scalar> 
29678
(
0.000127031
0.000171165
0.000192652
0.000202
0.000206944
0.000210061
0.000212196
0.000213752
0.000214991
0.000216073
0.000217071
0.000217942
0.000218729
0.000219467
0.000220175
0.000220872
0.000221543
0.000222212
0.000223001
0.000223773
0.000224518
0.000225226
0.000225764
0.000226167
0.000226444
0.000226675
0.000226774
0.000226815
0.000226836
0.000226856
0.00022682
0.000226729
0.000226619
0.000226492
0.000226354
0.000226199
0.000226013
0.000225754
0.000225429
0.000225088
0.000224769
0.000224528
0.000224401
0.000224396
0.000224551
0.00022485
0.000225207
0.000225608
0.000226111
0.000226727
0.000227429
0.000228223
0.000229122
0.000230096
0.000231034
0.000231913
0.000232856
0.000233689
0.000233884
0.00023411
0.000234503
0.000235068
0.000235766
0.000236569
0.000237449
0.000238083
0.000238593
0.000234581
0.000234263
0.000235419
0.000235583
0.000233085
0.000232746
0.00023426
0.00023573
0.000236522
0.000236458
0.000234793
0.000235199
0.000233166
0.000235685
0.000236427
0.000235507
0.000235891
0.000238307
0.000239928
0.000238023
0.00023573
0.000235065
0.00023547
0.000235886
0.000236637
0.000245003
0.000254159
0.000262667
0.000284183
0.000319259
0.000379397
0.000403335
0.000390988
0.000353692
0.000320016
0.000295549
0.000276618
0.000261974
0.00025064
0.00024068
0.00023196
0.000224425
0.000219276
0.000127076
0.00017115
0.000192748
0.000202316
0.000207406
0.000210628
0.000212823
0.000214451
0.000215776
0.000216881
0.000217793
0.000218598
0.000219342
0.000220051
0.000220742
0.000221428
0.000222126
0.000222847
0.000223569
0.000224275
0.000224955
0.000225608
0.000226208
0.000226673
0.000227013
0.000227293
0.000227444
0.000227549
0.000227616
0.000227669
0.00022766
0.000227599
0.000227513
0.000227404
0.000227276
0.000227123
0.000226939
0.000226691
0.000226388
0.000226072
0.000225782
0.000225578
0.000225498
0.000225547
0.000225742
0.000226061
0.000226448
0.000226896
0.000227435
0.000228072
0.000228794
0.000229603
0.000230434
0.000231263
0.000232069
0.000232884
0.000233643
0.00023372
0.00023359
0.000233719
0.000234053
0.000234586
0.000235277
0.000235918
0.000236443
0.000236622
0.000234667
0.000232527
0.000232033
0.000232966
0.00023257
0.000230666
0.000229859
0.000230416
0.000231066
0.000231305
0.000230732
0.000228892
0.00022815
0.000228214
0.00022871
0.000230618
0.000231482
0.000232794
0.000235064
0.000236073
0.000233463
0.000232902
0.000232828
0.000232639
0.000233367
0.000234932
0.000237385
0.000242687
0.000252899
0.000276581
0.00031453
0.000371004
0.000405301
0.000404384
0.000370293
0.000332938
0.000303545
0.000280787
0.000262029
0.000247606
0.000236601
0.000228719
0.000223063
0.00021908
0.000127154
0.000171172
0.000192876
0.000202593
0.000207767
0.000210995
0.000213176
0.000214788
0.000216094
0.000217168
0.000218055
0.00021884
0.000219566
0.000220261
0.000220939
0.000221612
0.000222284
0.000222953
0.000223614
0.000224266
0.000224906
0.000225532
0.000226141
0.000226725
0.000227199
0.000227572
0.000227845
0.00022804
0.000228175
0.00022826
0.000228294
0.000228278
0.000228226
0.000228141
0.000228027
0.000227885
0.00022771
0.000227498
0.000227258
0.000227013
0.000226787
0.000226609
0.000226511
0.00022651
0.000226616
0.000226823
0.000227104
0.000227444
0.000227848
0.000228325
0.000228868
0.000229475
0.000230141
0.000230864
0.00023162
0.000232225
0.000232377
0.000232275
0.000232287
0.000232408
0.000232616
0.000232877
0.000233156
0.000233431
0.000233684
0.000233857
0.000232963
0.000231755
0.000231234
0.000231136
0.000230792
0.000229922
0.000229272
0.00022894
0.000228615
0.000228261
0.00022794
0.000227434
0.000227218
0.000227477
0.000228221
0.00022954
0.000230653
0.000231851
0.000232903
0.000233683
0.000232911
0.000232532
0.000232568
0.000232443
0.000233113
0.000234728
0.000236949
0.000241361
0.000249575
0.000270981
0.000312714
0.000381008
0.000437742
0.000436358
0.000383686
0.000343
0.000311543
0.000287724
0.000267373
0.000251
0.000238373
0.000229456
0.000223435
0.000219262
0.000127262
0.000171242
0.000193078
0.000202902
0.000208135
0.000211343
0.000213492
0.000215071
0.000216343
0.000217387
0.000218252
0.000219019
0.000219731
0.000220413
0.000221078
0.000221734
0.000222388
0.000223042
0.000223693
0.000224337
0.00022497
0.000225589
0.000226193
0.00022678
0.000227336
0.000227782
0.000228124
0.000228384
0.000228575
0.000228709
0.000228789
0.00022882
0.00022881
0.000228764
0.000228686
0.000228576
0.000228436
0.000228268
0.00022808
0.000227888
0.000227709
0.000227567
0.000227487
0.000227487
0.000227575
0.000227749
0.000227995
0.000228302
0.000228668
0.000229091
0.000229562
0.00023007
0.000230592
0.000231093
0.000231507
0.000231771
0.000231855
0.000231754
0.00023172
0.00023184
0.000232096
0.000232451
0.00023285
0.00023322
0.000233446
0.000233327
0.000232635
0.000231945
0.000231573
0.000231414
0.000231036
0.000230367
0.000229847
0.000229544
0.000229272
0.00022894
0.000228535
0.000228071
0.000227968
0.000228269
0.00022895
0.000230161
0.000231224
0.000232279
0.000233263
0.000233834
0.000233354
0.00023338
0.000233679
0.000234091
0.000235139
0.000236952
0.000239349
0.000243415
0.000250041
0.00026578
0.000305249
0.000367872
0.000417021
0.000419023
0.000389091
0.000346934
0.000316077
0.000292991
0.000272894
0.000255813
0.000242045
0.000231893
0.000224806
0.000219833
0.000127396
0.000171339
0.00019333
0.000203239
0.000208529
0.000211721
0.000213839
0.000215386
0.000216621
0.000217633
0.000218474
0.000219222
0.00021992
0.00022059
0.000221245
0.000221892
0.000222534
0.000223171
0.000223803
0.000224426
0.000225041
0.000225646
0.000226239
0.00022682
0.000227373
0.000227835
0.000228218
0.000228531
0.000228782
0.000228978
0.000229122
0.00022922
0.000229276
0.000229295
0.000229278
0.000229229
0.00022915
0.000229047
0.000228928
0.000228804
0.000228691
0.000228604
0.000228563
0.000228584
0.000228673
0.00022883
0.000229047
0.000229317
0.000229632
0.000229987
0.000230372
0.000230773
0.000231171
0.000231542
0.000231854
0.000232068
0.000232145
0.000232116
0.000232118
0.000232217
0.0002324
0.000232632
0.000232867
0.000233052
0.000233127
0.000233024
0.000232676
0.000232236
0.000231848
0.000231502
0.000231091
0.00023059
0.000230106
0.000229682
0.000229304
0.000228979
0.000228723
0.000228555
0.000228601
0.000228908
0.000229479
0.000230297
0.000231123
0.000231912
0.000232622
0.000233176
0.000233458
0.000233883
0.000234519
0.000235373
0.000236685
0.000238655
0.000241369
0.000245234
0.000251529
0.000265793
0.000302674
0.000362255
0.000399416
0.000400976
0.000391157
0.000347148
0.000316708
0.000295223
0.000276528
0.00025961
0.000245125
0.00023395
0.00022596
0.000220331
0.000127552
0.000171438
0.000193602
0.000203602
0.000208939
0.000212121
0.000214215
0.000215729
0.000216929
0.000217907
0.000218723
0.000219454
0.000220138
0.000220798
0.000221445
0.000222086
0.000222722
0.000223355
0.000223984
0.000224608
0.000225225
0.000225834
0.000226433
0.000227021
0.000227597
0.000228158
0.000228645
0.000229046
0.000229373
0.000229636
0.000229841
0.000229994
0.0002301
0.000230166
0.000230194
0.000230189
0.000230155
0.000230099
0.000230029
0.000229955
0.000229888
0.000229843
0.000229833
0.00022987
0.000229961
0.000230107
0.000230302
0.000230542
0.000230818
0.000231125
0.000231452
0.000231787
0.000232112
0.000232408
0.00023265
0.000232812
0.000232884
0.000232901
0.000232929
0.000233011
0.000233151
0.000233333
0.000233526
0.000233678
0.000233733
0.000233638
0.000233375
0.000233038
0.000232699
0.000232357
0.000231968
0.000231531
0.000231107
0.000230732
0.000230407
0.000230137
0.000229931
0.000229813
0.000229863
0.00023013
0.000230627
0.000231331
0.000232088
0.000232828
0.000233508
0.000234081
0.000234524
0.000235089
0.000235877
0.000236923
0.000238358
0.000240309
0.000242905
0.000246115
0.000251624
0.000263176
0.000294884
0.000351734
0.000381365
0.000382604
0.000389416
0.000343588
0.000313546
0.000294175
0.000277918
0.000262331
0.000247945
0.00023616
0.00022734
0.000220968
0.000127725
0.000171549
0.000193882
0.000203974
0.000209353
0.000212533
0.000214607
0.000216093
0.000217259
0.000218206
0.000219
0.000219714
0.000220387
0.000221039
0.000221681
0.000222317
0.000222951
0.000223582
0.000224209
0.000224832
0.000225449
0.000226059
0.000226661
0.000227254
0.000227837
0.000228409
0.000228927
0.000229371
0.00022975
0.000230069
0.000230335
0.000230552
0.000230724
0.000230856
0.000230951
0.000231013
0.000231048
0.000231062
0.00023106
0.000231053
0.000231049
0.00023106
0.000231095
0.000231165
0.000231273
0.000231424
0.000231613
0.000231836
0.000232088
0.000232361
0.000232647
0.000232934
0.000233209
0.000233455
0.000233659
0.000233807
0.000233899
0.000233955
0.000234008
0.000234086
0.000234192
0.000234309
0.00023441
0.000234466
0.000234448
0.000234329
0.000234106
0.000233812
0.00023348
0.00023312
0.000232725
0.000232305
0.000231888
0.000231503
0.00023117
0.000230907
0.000230728
0.000230652
0.000230713
0.00023094
0.000231342
0.000231891
0.00023251
0.000233143
0.000233771
0.00023439
0.000235026
0.000235782
0.000236746
0.000237971
0.000239554
0.000241579
0.000244256
0.000247205
0.000252476
0.000262469
0.000289584
0.000339931
0.000357829
0.00035885
0.000383174
0.000337699
0.000307525
0.000290353
0.000277035
0.000263616
0.000250052
0.000238111
0.000228671
0.000221628
0.000127913
0.000171677
0.000194166
0.000204345
0.000209763
0.000212947
0.000215008
0.000216472
0.000217608
0.000218527
0.000219302
0.000220003
0.000220667
0.000221313
0.000221952
0.000222587
0.000223221
0.000223854
0.000224484
0.000225111
0.000225734
0.000226352
0.000226963
0.000227567
0.000228163
0.00022875
0.000229327
0.000229853
0.00023031
0.000230705
0.000231044
0.000231331
0.000231572
0.00023177
0.00023193
0.000232056
0.000232154
0.000232229
0.000232288
0.000232337
0.000232386
0.000232443
0.000232516
0.000232613
0.000232738
0.000232893
0.000233076
0.000233285
0.000233514
0.000233757
0.000234006
0.000234252
0.000234484
0.000234692
0.000234864
0.000234995
0.000235086
0.000235148
0.000235204
0.000235265
0.000235334
0.000235404
0.000235455
0.000235467
0.000235417
0.000235289
0.000235083
0.000234814
0.000234501
0.000234153
0.000233774
0.000233377
0.000232982
0.000232613
0.000232291
0.000232034
0.000231858
0.000231779
0.000231825
0.000232018
0.000232363
0.00023284
0.000233397
0.00023399
0.000234605
0.000235248
0.000235952
0.000236785
0.000237816
0.000239104
0.000240705
0.000242631
0.000245111
0.000247651
0.000252553
0.000261072
0.000284293
0.000325702
0.000343177
0.000344423
0.000374074
0.000331649
0.000299804
0.000284719
0.000274366
0.000263532
0.000251409
0.00023981
0.000230004
0.00022235
0.00012811
0.000171822
0.000194448
0.000204708
0.000210165
0.000213358
0.000215413
0.00021686
0.000217973
0.00021887
0.000219629
0.00022032
0.000220978
0.000221622
0.00022226
0.000222897
0.000223535
0.000224172
0.000224809
0.000225444
0.000226077
0.000226706
0.000227331
0.000227949
0.000228561
0.000229165
0.00022976
0.000230345
0.000230873
0.000231342
0.000231755
0.000232116
0.00023243
0.000232701
0.000232933
0.000233131
0.000233299
0.000233443
0.000233567
0.00023368
0.000233787
0.000233895
0.000234011
0.000234141
0.000234289
0.000234456
0.000234642
0.000234844
0.000235059
0.000235281
0.000235503
0.000235719
0.00023592
0.000236098
0.000236246
0.000236362
0.000236446
0.000236511
0.000236563
0.000236608
0.000236649
0.000236677
0.000236678
0.000236639
0.000236549
0.000236398
0.000236187
0.000235921
0.00023561
0.000235263
0.000234886
0.000234492
0.0002341
0.00023373
0.000233402
0.000233136
0.000232949
0.000232857
0.000232881
0.000233034
0.000233317
0.000233717
0.000234198
0.000234734
0.000235319
0.000235969
0.000236714
0.000237597
0.000238672
0.000239995
0.00024159
0.000243411
0.000245723
0.000247959
0.000252503
0.000259829
0.000279266
0.000311594
0.000330685
0.000332407
0.00036504
0.0003256
0.000292028
0.0002787
0.000270897
0.00026249
0.000252067
0.000241174
0.000231263
0.000223107
0.000128314
0.000171985
0.000194727
0.000205062
0.000210556
0.000213764
0.000215818
0.000217255
0.000218352
0.000219233
0.000219981
0.000220666
0.000221321
0.000221965
0.000222607
0.000223249
0.000223893
0.00022454
0.000225188
0.000225835
0.000226482
0.000227127
0.000227768
0.000228404
0.000229035
0.000229659
0.000230276
0.000230885
0.000231483
0.000232033
0.000232527
0.000232969
0.000233362
0.000233712
0.000234021
0.000234295
0.000234536
0.000234751
0.000234944
0.00023512
0.000235285
0.000235445
0.000235605
0.00023577
0.000235943
0.000236125
0.000236318
0.000236518
0.000236723
0.000236928
0.000237129
0.000237319
0.000237493
0.000237645
0.000237771
0.000237868
0.000237942
0.000237996
0.000238032
0.000238055
0.000238064
0.000238051
0.000238008
0.000237927
0.000237801
0.000237626
0.0002374
0.000237128
0.000236814
0.000236465
0.000236089
0.000235696
0.000235303
0.000234927
0.000234589
0.000234307
0.000234098
0.000233982
0.000233973
0.000234082
0.00023431
0.000234645
0.000235065
0.000235554
0.000236112
0.000236754
0.000237507
0.000238402
0.000239472
0.000240763
0.000242257
0.000243898
0.000245984
0.000247919
0.000252005
0.000258437
0.000275429
0.000299855
0.000317694
0.000319715
0.000358097
0.000320819
0.000286416
0.000273671
0.000267582
0.000261054
0.00025221
0.000242214
0.000232416
0.000223887
0.000128521
0.000172162
0.000195003
0.000205405
0.000210937
0.000214163
0.000216223
0.000217656
0.000218743
0.000219615
0.000220358
0.000221041
0.000221697
0.000222345
0.000222993
0.000223645
0.000224301
0.000224961
0.000225624
0.000226288
0.000226952
0.000227616
0.000228277
0.000228935
0.000229588
0.000230236
0.000230878
0.000231512
0.000232138
0.000232755
0.00023334
0.000233868
0.000234348
0.000234782
0.000235174
0.000235528
0.000235848
0.000236139
0.000236403
0.000236646
0.000236872
0.000237087
0.000237294
0.000237497
0.000237699
0.000237902
0.000238105
0.000238308
0.000238508
0.000238702
0.000238887
0.000239057
0.000239209
0.000239338
0.000239441
0.000239524
0.000239584
0.000239621
0.000239637
0.000239635
0.000239613
0.000239561
0.000239475
0.000239353
0.000239191
0.000238986
0.000238738
0.000238449
0.000238123
0.000237765
0.000237382
0.000236983
0.000236582
0.000236194
0.000235839
0.000235534
0.000235298
0.000235149
0.000235101
0.000235163
0.000235336
0.000235612
0.000235976
0.000236419
0.000236944
0.000237565
0.000238302
0.000239178
0.000240202
0.000241399
0.000242743
0.000244184
0.00024603
0.000247684
0.000251355
0.000257124
0.000272437
0.000293571
0.000308167
0.000309994
0.000353953
0.000318982
0.000282959
0.000270319
0.000264916
0.000259634
0.00025206
0.000242983
0.000233444
0.000224671
0.000128726
0.000172353
0.000195275
0.000205739
0.000211309
0.000214557
0.000216628
0.000218064
0.00021915
0.000220019
0.00022076
0.000221444
0.000222106
0.000222763
0.000223423
0.000224089
0.000224761
0.000225439
0.000226121
0.000226805
0.000227491
0.000228177
0.000228862
0.000229545
0.000230224
0.0002309
0.00023157
0.000232234
0.00023289
0.000233539
0.000234178
0.000234803
0.000235374
0.0002359
0.000236381
0.000236822
0.000237225
0.000237595
0.000237935
0.00023825
0.000238541
0.000238814
0.000239072
0.000239318
0.000239553
0.00023978
0.000239999
0.00024021
0.00024041
0.000240598
0.000240771
0.000240926
0.000241059
0.000241168
0.000241255
0.000241322
0.000241362
0.000241379
0.000241372
0.000241343
0.000241285
0.000241193
0.000241065
0.000240902
0.000240701
0.000240462
0.000240185
0.000239873
0.000239528
0.000239154
0.000238757
0.000238346
0.000237931
0.000237528
0.000237151
0.000236819
0.00023655
0.000236361
0.000236268
0.000236279
0.000236395
0.000236611
0.00023692
0.000237315
0.000237801
0.000238389
0.000239092
0.000239924
0.000240866
0.000241939
0.000243125
0.000244375
0.000245989
0.000247388
0.000250736
0.000256064
0.000270349
0.000291772
0.000302741
0.000304096
0.000352787
0.000320171
0.000281057
0.000268524
0.000262858
0.000258322
0.000251768
0.000243559
0.000234359
0.000225455
0.000128924
0.000172557
0.000195545
0.000206065
0.000211674
0.000214948
0.000217037
0.000218484
0.000219573
0.000220443
0.000221188
0.000221879
0.000222552
0.000223223
0.0002239
0.000224585
0.000225278
0.000225977
0.000226682
0.00022739
0.000228102
0.000228814
0.000229527
0.000230238
0.000230948
0.000231655
0.000232358
0.000233055
0.000233747
0.000234431
0.000235106
0.000235772
0.000236427
0.000237055
0.000237631
0.000238164
0.000238656
0.00023911
0.00023953
0.00023992
0.000240281
0.000240616
0.000240929
0.000241222
0.000241496
0.000241753
0.000241993
0.000242217
0.000242423
0.00024261
0.000242776
0.00024292
0.000243039
0.000243133
0.000243209
0.000243257
0.000243278
0.000243273
0.000243241
0.000243184
0.000243088
0.000242952
0.000242781
0.000242573
0.000242331
0.000242053
0.000241742
0.000241399
0.000241027
0.00024063
0.000240214
0.000239784
0.000239351
0.000238927
0.000238525
0.000238162
0.000237856
0.000237623
0.00023748
0.000237435
0.000237491
0.000237647
0.000237899
0.000238244
0.000238686
0.000239231
0.000239887
0.000240655
0.000241503
0.000242451
0.00024349
0.000244562
0.000245958
0.000247132
0.000250245
0.000255286
0.00026863
0.000290846
0.000299945
0.000300719
0.000354665
0.000324302
0.000280124
0.000267798
0.000261191
0.000257027
0.000251248
0.000243911
0.000235159
0.000226238
0.000129112
0.000172773
0.000195815
0.000206387
0.000212034
0.00021534
0.000217454
0.000218918
0.000220016
0.000220891
0.000221644
0.000222347
0.000223037
0.000223728
0.000224428
0.000225136
0.000225854
0.000226579
0.000227311
0.000228048
0.000228788
0.000229531
0.000230276
0.000231021
0.000231765
0.000232507
0.000233247
0.000233983
0.000234714
0.000235439
0.000236156
0.000236864
0.000237562
0.000238247
0.000238918
0.000239551
0.000240136
0.000240678
0.000241181
0.000241648
0.000242081
0.000242483
0.000242855
0.000243199
0.000243517
0.000243809
0.000244075
0.000244317
0.000244535
0.000244726
0.000244891
0.000245029
0.000245138
0.000245229
0.00024529
0.000245322
0.000245325
0.000245298
0.000245243
0.000245156
0.000245017
0.000244835
0.000244616
0.000244361
0.000244073
0.000243753
0.000243402
0.000243023
0.000242618
0.000242192
0.00024175
0.000241296
0.000240839
0.00024039
0.000239959
0.000239563
0.000239217
0.000238938
0.000238741
0.000238637
0.000238631
0.000238724
0.000238917
0.000239208
0.0002396
0.000240096
0.000240697
0.000241398
0.000242156
0.000242997
0.000243906
0.000244816
0.000246011
0.000246992
0.000249914
0.000254764
0.000267738
0.000290234
0.000298808
0.000299348
0.000358493
0.000330964
0.000281076
0.000267178
0.000259644
0.00025527
0.000249722
0.000243396
0.000235632
0.000227018
0.000129285
0.000173001
0.000196087
0.000206708
0.000212395
0.000215738
0.000217886
0.000219373
0.000220479
0.000221364
0.000222131
0.000222853
0.000223565
0.000224283
0.000225009
0.000225746
0.000226493
0.000227249
0.000228012
0.000228781
0.000229555
0.000230333
0.000231114
0.000231896
0.00023268
0.000233463
0.000234245
0.000235025
0.000235801
0.000236572
0.000237337
0.000238093
0.00023884
0.000239575
0.000240295
0.000241
0.000241681
0.000242313
0.0002429
0.000243444
0.000243949
0.000244416
0.000244847
0.000245244
0.000245608
0.000245938
0.000246235
0.0002465
0.000246732
0.000246932
0.0002471
0.000247235
0.000247346
0.000247429
0.000247479
0.000247497
0.000247482
0.000247435
0.000247355
0.000247229
0.000247046
0.000246816
0.000246548
0.000246246
0.000245912
0.000245549
0.000245156
0.000244737
0.000244295
0.000243835
0.00024336
0.000242877
0.000242392
0.000241914
0.000241452
0.00024102
0.000240632
0.000240305
0.000240054
0.000239888
0.000239818
0.000239846
0.000239976
0.000240209
0.000240546
0.00024099
0.000241535
0.000242173
0.000242858
0.000243618
0.000244421
0.000245188
0.000246204
0.000247023
0.000249819
0.000254572
0.000267247
0.000289702
0.000298856
0.000299483
0.000366302
0.000339953
0.000284467
0.000267081
0.000258775
0.000253506
0.000248121
0.000242139
0.000235131
0.000227736
0.000129438
0.000173243
0.000196366
0.000207032
0.000212762
0.000216152
0.000218341
0.000219851
0.000220967
0.000221866
0.000222652
0.0002234
0.000224142
0.00022489
0.000225649
0.000226419
0.0002272
0.00022799
0.000228789
0.000229595
0.000230407
0.000231224
0.000232046
0.000232871
0.000233698
0.000234528
0.000235358
0.000236188
0.000237016
0.00023784
0.000238659
0.000239471
0.000240274
0.000241065
0.000241842
0.000242602
0.000243342
0.000244059
0.000244728
0.000245348
0.00024592
0.000246449
0.000246935
0.000247381
0.000247788
0.000248155
0.000248482
0.00024877
0.000249017
0.000249226
0.000249395
0.000249529
0.000249637
0.000249708
0.000249742
0.00024974
0.000249701
0.000249626
0.000249515
0.000249339
0.000249103
0.000248824
0.000248511
0.00024817
0.000247801
0.000247402
0.000246975
0.000246521
0.000246044
0.000245548
0.000245038
0.000244522
0.000244005
0.000243494
0.000242999
0.000242529
0.000242099
0.000241724
0.000241416
0.000241189
0.000241053
0.000241013
0.000241077
0.000241247
0.000241527
0.000241917
0.000242409
0.000242994
0.000243627
0.00024433
0.000245053
0.000245708
0.00024657
0.000247277
0.000250001
0.000254706
0.000267023
0.000288972
0.000298852
0.000299606
0.000372767
0.000351745
0.000290469
0.000267755
0.000258283
0.000251788
0.000246436
0.000240582
0.00023427
0.000228247
0.000129569
0.000173506
0.000196656
0.000207365
0.000213144
0.000216591
0.000218826
0.000220357
0.000221483
0.0002224
0.000223213
0.000223994
0.00022477
0.000225555
0.000226351
0.000227159
0.000227978
0.000228807
0.000229646
0.000230493
0.000231348
0.000232209
0.000233076
0.000233949
0.000234827
0.000235708
0.000236593
0.00023748
0.000238367
0.000239252
0.000240135
0.000241011
0.000241879
0.000242735
0.000243576
0.000244399
0.0002452
0.000245976
0.000246722
0.000247416
0.000248055
0.000248643
0.000249182
0.000249674
0.000250119
0.000250519
0.000250872
0.000251179
0.000251438
0.000251649
0.000251814
0.000251948
0.000252039
0.000252089
0.000252098
0.000252067
0.000251998
0.000251891
0.000251744
0.000251506
0.000251207
0.000250869
0.000250505
0.00025012
0.000249712
0.000249281
0.000248824
0.000248342
0.000247836
0.00024731
0.000246769
0.000246219
0.000245668
0.000245123
0.000244593
0.000244086
0.000243614
0.000243189
0.000242826
0.000242538
0.000242335
0.000242227
0.000242222
0.000242326
0.000242543
0.000242876
0.000243318
0.000243862
0.00024446
0.000245126
0.000245794
0.000246381
0.000247141
0.000247815
0.000250521
0.000255191
0.000267078
0.000288115
0.000298231
0.00029909
0.000379552
0.000368521
0.000298696
0.000268774
0.000257956
0.000250201
0.000244769
0.000238879
0.000233149
0.000227966
0.000129674
0.000173795
0.000196966
0.000207715
0.000213552
0.000217066
0.000219348
0.000220895
0.000222031
0.000222972
0.00022382
0.000224639
0.000225456
0.000226283
0.00022712
0.00022797
0.000228832
0.000229704
0.000230587
0.000231479
0.000232381
0.000233291
0.000234209
0.000235136
0.000236069
0.00023701
0.000237957
0.000238909
0.000239864
0.00024082
0.000241775
0.000242726
0.000243669
0.000244601
0.000245517
0.000246413
0.000247283
0.000248125
0.000248933
0.000249702
0.00025041
0.00025106
0.000251653
0.000252192
0.000252679
0.000253113
0.000253494
0.00025382
0.000254091
0.000254306
0.000254476
0.000254602
0.000254677
0.000254704
0.000254686
0.000254623
0.000254517
0.000254369
0.000254154
0.00025384
0.000253464
0.000253052
0.000252619
0.000252171
0.000251707
0.000251225
0.000250725
0.000250204
0.000249663
0.000249106
0.000248534
0.000247953
0.00024737
0.000246791
0.000246225
0.000245681
0.000245167
0.000244695
0.000244279
0.000243931
0.000243663
0.000243486
0.000243411
0.000243445
0.000243595
0.000243868
0.00024426
0.000244767
0.000245342
0.000245987
0.000246627
0.000247205
0.00024794
0.000248686
0.000251431
0.00025606
0.000267473
0.000287356
0.000296965
0.000297854
0.000387585
0.000390028
0.000306954
0.000269679
0.000257701
0.000249031
0.000243501
0.000237491
0.000232146
0.000227451
0.000129751
0.000174119
0.000197306
0.000208093
0.000213999
0.000217589
0.000219911
0.00022147
0.000222619
0.000223589
0.000224478
0.000225342
0.000226206
0.000227078
0.000227962
0.000228858
0.000229766
0.000230685
0.000231616
0.000232558
0.00023351
0.000234474
0.000235448
0.000236434
0.000237431
0.000238439
0.000239456
0.000240482
0.000241516
0.000242554
0.000243594
0.000244633
0.000245665
0.000246686
0.00024769
0.000248672
0.000249625
0.000250546
0.000251427
0.000252263
0.000253049
0.000253766
0.000254418
0.000255009
0.000255539
0.00025601
0.000256421
0.000256771
0.000257057
0.000257281
0.000257463
0.000257582
0.000257641
0.000257644
0.000257593
0.000257492
0.000257342
0.000257145
0.000256839
0.000256426
0.000255952
0.000255446
0.000254925
0.000254393
0.000253851
0.000253297
0.000252729
0.000252148
0.000251554
0.00025095
0.000250337
0.00024972
0.000249101
0.000248488
0.000247886
0.000247303
0.000246749
0.000246232
0.000245765
0.00024536
0.000245029
0.000244785
0.000244639
0.000244602
0.000244684
0.000244891
0.000245229
0.000245697
0.000246254
0.000246893
0.000247535
0.00024817
0.000248969
0.000249891
0.000252727
0.000257329
0.000268253
0.000286787
0.000295293
0.000296227
0.000402202
0.000412905
0.000311876
0.000270419
0.000257577
0.000248605
0.000242946
0.000236801
0.000231628
0.000227108
0.000129798
0.000174484
0.000197687
0.000208513
0.000214499
0.00021817
0.000220523
0.000222088
0.000223253
0.000224258
0.000225195
0.000226109
0.000227024
0.000227947
0.00022888
0.000229826
0.000230783
0.000231753
0.000232734
0.000233729
0.000234737
0.000235759
0.000236795
0.000237847
0.000238914
0.000239997
0.000241095
0.000242208
0.000243333
0.000244468
0.00024561
0.000246754
0.000247895
0.000249027
0.000250145
0.000251242
0.000252311
0.000253343
0.000254327
0.000255251
0.000256107
0.000256888
0.000257595
0.000258226
0.000258787
0.000259283
0.000259716
0.000260084
0.000260385
0.000260637
0.000260825
0.000260943
0.000260989
0.000260967
0.000260881
0.000260735
0.000260534
0.000260276
0.000259852
0.000259316
0.000258722
0.000258103
0.000257474
0.000256839
0.000256197
0.000255547
0.000254888
0.000254223
0.000253552
0.000252878
0.000252205
0.000251534
0.00025087
0.000250214
0.000249571
0.000248948
0.000248351
0.00024779
0.000247273
0.000246814
0.000246423
0.000246114
0.0002459
0.000245793
0.000245804
0.000245944
0.000246221
0.000246641
0.000247174
0.000247821
0.000248493
0.000249247
0.000250189
0.000251372
0.000254339
0.00025899
0.000269416
0.000286391
0.000293712
0.000294766
0.000424803
0.000434539
0.000314465
0.000271958
0.000258272
0.000249241
0.000243246
0.000236969
0.000231707
0.00022714
0.00012981
0.000174894
0.000198121
0.000208994
0.000215069
0.00021882
0.00022119
0.000222758
0.000223942
0.000224985
0.000225977
0.000226947
0.000227917
0.000228894
0.00022988
0.000230877
0.000231886
0.000232908
0.000233943
0.000234993
0.00023606
0.000237144
0.000238248
0.000239373
0.00024052
0.000241689
0.00024288
0.000244095
0.00024533
0.000246584
0.000247854
0.000249136
0.000250431
0.000251736
0.000253049
0.000254364
0.000255667
0.000256938
0.000258142
0.00025924
0.000260197
0.000260998
0.000261653
0.000262193
0.000262651
0.00026305
0.000263403
0.000263713
0.000263986
0.00026424
0.000264447
0.0002646
0.000264669
0.00026465
0.000264547
0.000264367
0.000264116
0.000263767
0.000263214
0.000262545
0.000261821
0.000261074
0.000260317
0.000259556
0.00025879
0.00025802
0.000257245
0.00025647
0.000255696
0.000254928
0.000254169
0.000253423
0.000252693
0.00025198
0.000251285
0.000250613
0.000249969
0.000249359
0.000248793
0.00024828
0.000247832
0.000247462
0.000247182
0.000247007
0.000246948
0.000247018
0.000247229
0.000247593
0.000248092
0.000248747
0.000249467
0.000250383
0.000251522
0.000253025
0.000256146
0.000261004
0.000270935
0.000286159
0.000292878
0.000294132
0.000449376
0.000456414
0.000321298
0.000275586
0.000260418
0.000251012
0.000244398
0.000237861
0.000232201
0.000227553
0.000129785
0.000175349
0.000198623
0.000209559
0.000215726
0.000219547
0.00022192
0.000223489
0.000224696
0.000225781
0.000226832
0.000227863
0.000228891
0.000229923
0.000230963
0.000232012
0.000233074
0.000234148
0.000235239
0.000236347
0.000237475
0.000238627
0.000239805
0.000241011
0.000242248
0.000243517
0.000244821
0.00024616
0.000247534
0.000248947
0.000250407
0.000251935
0.000253555
0.000255293
0.00025716
0.000259148
0.000261222
0.000263305
0.000265273
0.000266954
0.000268183
0.000268877
0.000269083
0.000268961
0.000268701
0.00026845
0.000268281
0.000268203
0.000268232
0.000268307
0.000268387
0.000268448
0.000268476
0.000268461
0.000268396
0.000268264
0.000268014
0.000267585
0.000266928
0.000266143
0.000265292
0.000264409
0.00026351
0.0002626
0.000261684
0.000260764
0.000259844
0.000258928
0.000258023
0.000257132
0.000256262
0.000255415
0.000254596
0.000253804
0.000253041
0.000252307
0.000251605
0.00025094
0.000250318
0.000249749
0.000249244
0.000248813
0.00024847
0.000248227
0.000248099
0.0002481
0.000248241
0.000248542
0.000248997
0.000249653
0.000250424
0.000251504
0.000252859
0.000254716
0.000258002
0.000263273
0.000272662
0.00028607
0.000293434
0.000294846
0.000462809
0.000476613
0.000336504
0.000283209
0.000264217
0.000253433
0.000246129
0.000239058
0.000232892
0.000228095
0.000129717
0.000175847
0.000199207
0.000210234
0.00021649
0.000220359
0.000222722
0.00022429
0.000225523
0.000226653
0.000227767
0.000228861
0.000229949
0.000231037
0.000232129
0.00023323
0.000234342
0.000235469
0.000236615
0.000237782
0.000238975
0.0002402
0.00024146
0.000242759
0.000244102
0.000245493