/*--------------------------------*- C++ -*----------------------------------*\
| =========                 |                                                 |
| \\      /  F ield         | OpenFOAM: The Open Source CFD Toolbox           |
|  \\    /   O peration     | Version:  v2106                                 |
|   \\  /    A nd           | Website:  www.openfoam.com                      |
|    \\/     M anipulation  |                                                 |
\*---------------------------------------------------------------------------*/
FoamFile
{
    version     2.0;
    format      ascii;
    arch        "LSB;label=32;scalar=64";
    class       volScalarField;
    location    "1.9";
    object      nut;
}
// * * * * * * * * * * * * * * * * * * * * * * * * * * * * * * * * * * * * * //

dimensions      [0 2 -1 0 0 0 0];

internalField   nonuniform List<scalar> 
29678
(
6.91871e-06
0.000110515
0.000294968
0.000534119
0.000428477
0.000340795
0.000278972
0.00023168
0.000193247
0.000160716
0.000132344
0.000107071
8.43268e-05
6.35786e-05
4.47258e-05
2.90249e-05
1.51342e-05
1.64303e-05
4.14906e-05
6.08236e-05
7.89666e-05
9.66151e-05
0.00011448
0.000130302
0.000147767
0.000161884
0.000183711
0.000205917
0.000226214
0.000242026
0.000264656
0.000291258
0.000316202
0.000341319
0.000365096
0.00038973
0.000422858
0.000490787
0.000580041
0.000648688
0.000671625
0.000594412
0.000482975
0.0003987
0.000321528
0.000265483
0.000234123
0.00021109
0.00018799
0.00016778
0.000151913
0.000137813
0.000123731
0.000105385
7.71016e-05
8.18445e-06
9.31229e-06
0.000183628
0.000280957
0.000232277
0.00018262
0.000148325
0.00012654
0.000112921
0.000101751
9.05131e-05
1.65057e-05
0.000573368
0.000308636
0.00018857
0.000174518
0.000471014
0.000317635
0.000184903
0.000154938
0.00014427
0.000134885
1.60483e-05
1.96138e-05
0.000601023
0.000232457
0.000129553
0.000140086
0.000185501
0.000139907
0.000135626
0.000295453
0.000246873
0.000279243
0.000510945
0.000527181
0.00079164
0.000559642
0.000464485
0.000371182
0.000350688
0.000222617
4.47973e-05
3.09351e-05
4.12538e-05
5.64888e-05
5.91246e-05
6.26961e-05
5.47216e-05
5.88706e-05
4.58845e-05
4.17967e-05
3.57656e-05
4.55136e-05
4.70585e-05
6.86966e-06
0.000109609
0.000292119
0.00036616
0.000299026
0.000245409
0.000204439
0.00017179
0.000145086
0.000122647
0.000103564
8.74485e-05
7.39949e-05
6.23017e-05
5.06955e-05
3.60465e-05
2.4543e-05
3.05328e-05
4.47674e-05
6.24686e-05
7.81271e-05
9.24247e-05
0.000106669
0.000119316
0.000133178
0.000144472
0.000161507
0.000176564
0.000191398
0.000202857
0.000218789
0.000235987
0.000251617
0.000266952
0.000280839
0.000295068
0.000310453
0.00033462
0.00035912
0.000370204
0.000364332
0.00033693
0.000297855
0.000260177
0.000224767
0.000197198
0.000177976
0.000162227
0.000147816
0.000135495
0.000125484
0.000117431
0.000112256
0.000113122
0.000114954
8.62852e-05
0.000130926
0.000391214
0.000341681
0.000213001
0.000160281
0.000128905
0.00010936
9.65223e-05
8.97244e-05
0.00011128
0.000183325
0.000689941
0.00031554
0.000142614
0.000168021
0.000440211
0.00032763
0.000154856
0.000118407
0.000109369
0.00012897
0.000290904
0.00101293
0.000486097
0.000262359
0.000106728
0.000124104
0.000152575
0.000117559
0.000123675
0.000238422
0.000189848
0.000230799
0.000326312
0.000319042
0.000464421
0.000499434
0.00022066
0.000160567
0.000118332
0.000133623
0.000129591
2.68753e-05
4.54293e-05
8.45854e-05
4.09022e-05
5.44218e-05
4.02675e-05
4.12146e-05
3.14478e-05
2.83478e-05
2.60844e-05
3.05666e-05
2.83633e-05
6.80719e-06
0.000108726
0.000289472
0.00031784
0.00027045
0.000229072
0.000194757
0.000166353
0.000142597
0.000122279
0.000104583
8.88671e-05
7.45232e-05
6.14943e-05
5.08644e-05
4.39688e-05
4.47491e-05
5.08326e-05
5.72726e-05
6.64326e-05
7.64489e-05
8.7098e-05
9.84572e-05
0.0001102
0.000122644
0.000135476
0.000149815
0.000165021
0.000180579
0.000196126
0.000212658
0.00022984
0.000246538
0.000262376
0.000277088
0.000290866
0.000304127
0.000317086
0.00032575
0.000326286
0.000318399
0.000301723
0.000278354
0.000253323
0.000228932
0.000207186
0.000189861
0.000175973
0.000163785
0.000152904
0.00014357
0.000135586
0.000128565
0.000121211
0.000118705
0.000164366
0.000458509
0.000574809
0.000350254
0.000253925
0.000205746
0.000177392
0.000159707
0.000148291
0.000139637
0.00013385
0.000200611
0.000351964
0.000279538
0.000222449
0.000217803
0.00025954
0.000232443
0.000190708
0.000174986
0.000170913
0.000174781
0.000239871
0.000335687
0.00026429
0.000200203
0.000160575
0.000163666
0.000165153
0.000161596
0.000160138
0.000206797
0.000217215
0.000229929
0.000285031
0.000307463
0.000316682
0.000340982
0.000245975
0.000160407
0.000113431
0.000140751
0.000131866
0.000124168
7.6819e-05
7.59436e-05
4.70454e-05
5.50822e-05
4.50966e-05
4.32068e-05
3.39782e-05
2.96895e-05
2.87735e-05
3.23071e-05
2.91891e-05
6.72357e-06
0.000107937
0.000287044
0.000279497
0.000248395
0.00021732
0.000188907
0.000164124
0.000142777
0.000124233
0.000108017
9.38378e-05
8.15825e-05
7.13065e-05
6.26783e-05
5.47333e-05
4.80918e-05
4.8298e-05
5.43737e-05
6.28803e-05
7.23253e-05
8.22037e-05
9.2494e-05
0.000103046
0.000114062
0.000125394
0.000137465
0.000149958
0.000162666
0.000175511
0.000188821
0.000202445
0.000215918
0.000228992
0.000241471
0.000253212
0.000263994
0.000273392
0.000279939
0.000281979
0.00027847
0.000268438
0.000252619
0.000233949
0.000215017
0.000197754
0.000183277
0.000171314
0.000161248
0.000153066
0.000147178
0.000144222
0.000145619
0.000155936
0.000186916
0.000254333
0.000462438
0.00112148
0.000503229
0.000291621
0.000214971
0.000176997
0.000156199
0.000146247
0.000146311
0.000163934
0.000227637
0.000265135
0.000238923
0.000208655
0.000210493
0.000227928
0.000211581
0.000184247
0.000170136
0.00017077
0.000190436
0.000247725
0.000274015
0.000240427
0.000204922
0.000165285
0.000162061
0.000163564
0.000162502
0.000168732
0.000207424
0.000212395
0.000230267
0.000254321
0.000267312
0.000273974
0.000272555
0.000239114
0.000191855
0.000155066
0.000182422
0.000208538
0.00011376
6.02021e-05
7.56192e-05
7.04694e-05
5.7593e-05
5.06941e-05
4.53809e-05
3.75861e-05
3.19654e-05
2.928e-05
3.03287e-05
2.59345e-05
6.62242e-06
0.000107233
0.00026393
0.000249937
0.000228809
0.000205645
0.000182569
0.000161393
0.00014257
0.000125926
0.000111251
9.84086e-05
8.73261e-05
7.7987e-05
7.04922e-05
6.54172e-05
6.38013e-05
6.63984e-05
7.17513e-05
7.83204e-05
8.55064e-05
9.31663e-05
0.000101306
0.000109896
0.000118955
0.000128424
0.000138362
0.000148635
0.000159102
0.000169694
0.000180416
0.000191136
0.000201608
0.000211637
0.000221035
0.000229584
0.000236975
0.000242789
0.000246371
0.000246983
0.00024405
0.000237171
0.000226729
0.000214143
0.000201032
0.000188725
0.00017805
0.000169208
0.000162143
0.000156984
0.000154139
0.000154292
0.000158674
0.000169494
0.000191038
0.000238277
0.000340274
0.000428576
0.000357909
0.000277481
0.000228825
0.000200323
0.000184007
0.000175991
0.00017578
0.000184904
0.000208477
0.000226281
0.000226204
0.000220374
0.000219081
0.0002194
0.000212964
0.00020433
0.000199709
0.000201123
0.000210095
0.000225741
0.000229701
0.00021861
0.00020445
0.00019148
0.000188259
0.000189315
0.000192887
0.000200834
0.000217693
0.000225878
0.000236762
0.000248615
0.000253435
0.000249716
0.00023101
0.000209599
0.000161014
0.000144168
0.000173946
0.000211106
0.000196065
5.66254e-05
7.98661e-05
7.60345e-05
5.65494e-05
5.26016e-05
4.60608e-05
3.97527e-05
3.39535e-05
3.10696e-05
3.16625e-05
2.66158e-05
6.50735e-06
0.000106582
0.00023506
0.000227238
0.000212512
0.000195133
0.000176549
0.000158675
0.000142272
0.000127476
0.000114285
0.000102689
9.26788e-05
8.42685e-05
7.74875e-05
7.24541e-05
6.94046e-05
6.88832e-05
7.09783e-05
7.49391e-05
8.01384e-05
8.61859e-05
9.28786e-05
0.000100089
0.000107755
0.000115827
0.000124253
0.000132947
0.000141826
0.000150829
0.000159902
0.000168939
0.00017778
0.000186255
0.000194171
0.000201303
0.000207377
0.000212076
0.000215026
0.000215845
0.000214241
0.000210089
0.000203625
0.000195565
0.00018686
0.000178406
0.000170865
0.000164592
0.000159765
0.000156617
0.000155555
0.000157224
0.000162705
0.00017393
0.000194476
0.000230517
0.000280353
0.000309628
0.000291239
0.000254122
0.000221787
0.000198528
0.000183441
0.000175467
0.000174803
0.00018176
0.000194933
0.000203007
0.000202786
0.000199835
0.000198878
0.000198379
0.000194487
0.000188928
0.000185623
0.000186854
0.000193113
0.000202425
0.000206636
0.000202997
0.000195391
0.000186526
0.000183163
0.000183804
0.000187354
0.000194948
0.000208706
0.000219151
0.000230207
0.00024067
0.000248195
0.000252392
0.000241772
0.000246773
0.000195551
0.000208166
0.000184359
0.000182248
0.000229321
5.53415e-05
7.52478e-05
7.67174e-05
5.59986e-05
5.19309e-05
4.61312e-05
4.14934e-05
3.61083e-05
3.3037e-05
3.29131e-05
2.71151e-05
6.38183e-06
0.000106021
0.000213878
0.000209955
0.000199457
0.000186209
0.000171207
0.000156183
0.000141968
0.000128872
0.000117042
0.000106569
9.7505e-05
8.99042e-05
8.38432e-05
7.9468e-05
7.70693e-05
7.69153e-05
7.87971e-05
8.21567e-05
8.65348e-05
9.16202e-05
9.7226e-05
0.000103244
0.000109613
0.000116289
0.000123207
0.000130299
0.000137499
0.000144741
0.000151956
0.000159048
0.000165897
0.000172366
0.000178305
0.000183543
0.000187889
0.000191144
0.000193104
0.000193582
0.000192451
0.000189689
0.000185455
0.000180148
0.000174335
0.000168604
0.000163451
0.000159227
0.000156189
0.000154608
0.000154854
0.000157452
0.00016315
0.00017298
0.000188112
0.000208926
0.000231393
0.000244517
0.00024047
0.000225739
0.000209759
0.000196988
0.000188338
0.000183816
0.000183396
0.00018707
0.000193326
0.000198249
0.000200334
0.000200876
0.000201207
0.000201135
0.000200025
0.000198532
0.00019791
0.000198971
0.00020174
0.000205028
0.000206323
0.000205
0.000202471
0.000200169
0.000200138
0.000202527
0.000207053
0.000213688
0.000222251
0.00023013
0.000238219
0.000245808
0.000251092
0.000255529
0.000240316
0.000255558
0.000204674
0.000260817
0.000222785
0.000199869
0.000310004
5.64485e-05
7.28587e-05
7.12034e-05
5.532e-05
4.83571e-05
4.5376e-05
4.22582e-05
3.81074e-05
3.56091e-05
3.53958e-05
2.88682e-05
6.24911e-06
0.000105575
0.000198289
0.00019687
0.000189255
0.000178952
0.000166713
0.000154034
0.000141699
0.000130094
0.000119461
0.00010996
0.000101696
9.47474e-05
8.91926e-05
8.51275e-05
8.26646e-05
8.18553e-05
8.25852e-05
8.45675e-05
8.75026e-05
9.11564e-05
9.53649e-05
0.000100015
0.00010503
0.000110348
0.000115918
0.000121665
0.000127518
0.000133417
0.000139294
0.000145069
0.000150646
0.000155916
0.000160757
0.000165037
0.00016862
0.000171369
0.000173157
0.000173882
0.000173484
0.000171973
0.000169467
0.000166213
0.000162568
0.00015893
0.000155669
0.000153094
0.00015146
0.000151023
0.000152079
0.000154987
0.000160171
0.000168061
0.000178877
0.000192032
0.000205084
0.000213185
0.000213299
0.000207186
0.000198691
0.00019054
0.000184053
0.000180222
0.000179446
0.000181353
0.000184732
0.000187632
0.000189194
0.000189839
0.000190149
0.000190136
0.000189613
0.000188926
0.000188788
0.000189743
0.000191805
0.000194297
0.000196002
0.000196386
0.000195926
0.000195495
0.000196381
0.000199111
0.000203843
0.000210673
0.000219492
0.000229092
0.000239468
0.000250288
0.000260792
0.0002759
0.000267353
0.000309984
0.000250744
0.000386808
0.000261975
0.00022143
0.000308757
5.86756e-05
7.3556e-05
6.57292e-05
5.42843e-05
4.44406e-05
4.48723e-05
4.28957e-05
4.06063e-05
3.89586e-05
3.87624e-05
3.13124e-05
6.11211e-06
0.000105254
0.000186785
0.000187034
0.000181447
0.00017327
0.000163125
0.000152304
0.000141509
0.000131147
0.000121515
0.000112824
0.000105212
9.8769e-05
9.35671e-05
8.96657e-05
8.71083e-05
8.58903e-05
8.5921e-05
8.70285e-05
8.90106e-05
9.16804e-05
9.48882e-05
9.8521e-05
0.000102494
0.000106742
0.000111208
0.000115838
0.000120556
0.000125301
0.000130014
0.000134627
0.000139064
0.000143243
0.000147073
0.000150461
0.000153316
0.000155549
0.000157087
0.000157875
0.000157891
0.000157159
0.000155767
0.000153881
0.000151732
0.000149589
0.000147723
0.000146378
0.000145773
0.000146119
0.000147632
0.000150541
0.000155057
0.000161307
0.000169164
0.000178034
0.000186196
0.000191572
0.000192965
0.000190824
0.000186886
0.000182748
0.000179286
0.000177349
0.000177109
0.000178354
0.000180436
0.000182481
0.000184038
0.000185167
0.000186046
0.000186712
0.000187169
0.000187594
0.000188278
0.000189437
0.000191055
0.000192844
0.000194378
0.000195529
0.0001966
0.000198097
0.000200607
0.000204455
0.000209775
0.000216608
0.000224945
0.000234566
0.000245709
0.000258204
0.000271252
0.000293588
0.000290072
0.000359641
0.000312235
0.000609624
0.000359401
0.000301387
0.000242973
6.34191e-05
7.41046e-05
6.42787e-05
5.34636e-05
4.20344e-05
4.56503e-05
4.42188e-05
4.41431e-05
4.34546e-05
4.34246e-05
3.47402e-05
5.97337e-06
0.000105066
0.00017838
0.000179772
0.00017564
0.000169016
0.000160436
0.000151033
0.00014143
0.000132045
0.00012321
0.000115168
0.000108069
0.000102006
9.70382e-05
9.32002e-05
9.05011e-05
8.89149e-05
8.83655e-05
8.87306e-05
8.98651e-05
9.16273e-05
9.38939e-05
9.65649e-05
9.95605e-05
0.000102816
0.000106276
0.00010989
0.00011361
0.000117367
0.000121105
0.000124769
0.0001283
0.000131636
0.000134712
0.00013746
0.000139818
0.000141729
0.000143145
0.000144038
0.000144401
0.000144259
0.000143681
0.00014278
0.000141713
0.000140668
0.000139839
0.000139414
0.000139568
0.000140462
0.000142251
0.000145069
0.000149009
0.000154065
0.000160061
0.000166398
0.000172129
0.000176393
0.00017846
0.000178515
0.00017732
0.000175456
0.000173789
0.000172918
0.000173027
0.000174018
0.000175548
0.000177179
0.000178639
0.000179883
0.000180961
0.000181908
0.000182765
0.000183634
0.000184669
0.000185984
0.000187583
0.00018934
0.000191095
0.00019283
0.000194735
0.000197126
0.000200356
0.000204691
0.000210321
0.000217396
0.000226071
0.000236487
0.000249169
0.000264337
0.000281591
0.000313971
0.000320482
0.000435031
0.000393052
0.000669367
0.000519658
0.000421946
0.000215841
6.80908e-05
7.72639e-05
6.62003e-05
5.46887e-05
4.24197e-05
4.88949e-05
4.72594e-05
4.94495e-05
4.95124e-05
4.96905e-05
3.92845e-05
5.83503e-06
0.000105012
0.000172418
0.000174608
0.000171535
0.000166048
0.000158609
0.000150225
0.000141481
0.000132814
0.000124584
0.000117039
0.000110327
0.000104532
9.97017e-05
9.5853e-05
9.29809e-05
9.10524e-05
9.00032e-05
8.97407e-05
9.01566e-05
9.11415e-05
9.25954e-05
9.44319e-05
9.65787e-05
9.89752e-05
0.000101569
0.000104315
0.000107167
0.000110085
0.000113014
0.000115898
0.000118694
0.000121353
0.000123829
0.000126075
0.000128048
0.000129708
0.000131029
0.000131993
0.000132601
0.000132878
0.000132873
0.000132668
0.000132374
0.00013212
0.000132049
0.0001323
0.000133005
0.000134283
0.000136239
0.000138948
0.00014244
0.00014667
0.000151454
0.000156284
0.00016083
0.000164513
0.000166944
0.000168181
0.000168583
0.000168052
0.000167637
0.000167632
0.000168176
0.000169237
0.000170643
0.000172168
0.000173648
0.000175022
0.000176294
0.000177493
0.000178659
0.000179862
0.000181186
0.000182696
0.000184401
0.000186264
0.000188246
0.000190393
0.000192853
0.000195844
0.000199597
0.000204324
0.000210221
0.000217509
0.000226481
0.000237466
0.000251354
0.000268583
0.000289078
0.000329494
0.000346757
0.000507238
0.000469565
0.000682624
0.000534435
0.000433257
0.000231217
7.90763e-05
8.49146e-05
7.1052e-05
5.83375e-05
4.59968e-05
5.49167e-05
5.24847e-05
5.7043e-05
5.75805e-05
5.80824e-05
4.52056e-05
5.69888e-06
0.000105094
0.000168468
0.000171221
0.000168919
0.000164249
0.000157588
0.000149861
0.000141672
0.000133495
0.000125695
0.000118508
0.000112062
0.000106432
0.000101651
9.77328e-05
9.46645e-05
9.24134e-05
9.09241e-05
9.01227e-05
8.99244e-05
9.02425e-05
9.09949e-05
9.21079e-05
9.35178e-05
9.51699e-05
9.70169e-05
9.90165e-05
0.000101131
0.000103323
0.000105558
0.000107799
0.000109992
0.000112105
0.000114102
0.000115951
0.000117621
0.000119088
0.000120332
0.000121344
0.000122129
0.000122705
0.000123111
0.000123405
0.000123667
0.00012399
0.000124475
0.000125225
0.000126339
0.000127901
0.00012998
0.000132617
0.000135817
0.000139557
0.000143524
0.000147643
0.000151593
0.000154991
0.000157673
0.00015964
0.000160786
0.000161236
0.000161674
0.000162306
0.000163236
0.000164466
0.000165918
0.000167474
0.000169036
0.000170548
0.000171999
0.000173403
0.000174796
0.000176233
0.000177772
0.000179456
0.000181306
0.00018332
0.000185516
0.000187959
0.000190774
0.00019412
0.000198169
0.000203096
0.000209096
0.000216423
0.00022545
0.00023657
0.000250968
0.000269152
0.000291265
0.00033553
0.000359017
0.000531904
0.000494689
0.000692929
0.000546212
0.000442705
0.000262426
0.000106798
9.71004e-05
7.84643e-05
6.46058e-05
5.26864e-05
6.29407e-05
5.99746e-05
6.72592e-05
6.82031e-05
6.93482e-05
5.28773e-05
5.5663e-06
0.000105313
0.00016626
0.000169411
0.000167658
0.000163532
0.000157313
0.000149917
0.000142021
0.000134138
0.000126613
0.000119645
0.000113346
0.000107779
0.000102973
9.8937e-05
9.56563e-05
9.30987e-05
9.1215e-05
8.99435e-05
8.9215e-05
8.89585e-05
8.91056e-05
8.95936e-05
9.03671e-05
9.13775e-05
9.25826e-05
9.39453e-05
9.54322e-05
9.70129e-05
9.86585e-05
0.000100342
0.000102035
0.000103706
0.000105317
0.000106848
0.000108278
0.000109588
0.000110768
0.00011181
0.00011272
0.000113512
0.000114216
0.000114873
0.000115542
0.000116289
0.000117189
0.000118318
0.000119745
0.000121532
0.000123725
0.000126339
0.000129427
0.000132777
0.000136373
0.000140117
0.000143736
0.000147049
0.000149944
0.000152408
0.000153874
0.00015492
0.000155925
0.000157019
0.000158275
0.000159706
0.00016128
0.000162937
0.000164619
0.000166283
0.000167911
0.000169506
0.000171092
0.000172711
0.000174412
0.000176237
0.000178214
0.000180365
0.000182725
0.00018536
0.000188372
0.000191882
0.000196024
0.00020095
0.000206844
0.000213961
0.000222698
0.000233413
0.000247426
0.000265161
0.000286755
0.000329323
0.000351109
0.000488673
0.000448888
0.000694978
0.000432729
0.000278232
0.000278234
0.000184411
0.000114014
8.96735e-05
7.24434e-05
6.23599e-05
7.26235e-05
6.98317e-05
8.02775e-05
8.21307e-05
8.46427e-05
6.28666e-05
5.43839e-06
0.000105667
0.000165647
0.000169076
0.000167683
0.000163831
0.000157727
0.000150373
0.000142556
0.000134797
0.000127391
0.000120506
0.000114236
0.000108641
0.000103746
9.95549e-05
9.60498e-05
9.31988e-05
9.09569e-05
8.92706e-05
8.80809e-05
8.73277e-05
8.6953e-05
8.69031e-05
8.71294e-05
8.75895e-05
8.82461e-05
8.90668e-05
9.00231e-05
9.10894e-05
9.22426e-05
9.34613e-05
9.47251e-05
9.60144e-05
9.73103e-05
9.85858e-05
9.98212e-05
0.000101005
0.000102129
0.00010319
0.00010419
0.000105142
0.000106066
0.000106996
0.000107972
0.000109044
0.000110267
0.000111695
0.000113381
0.000115368
0.000117686
0.000120372
0.000123336
0.000126537
0.00013002
0.000133574
0.000137078
0.000140414
0.000143515
0.000146359
0.000147807
0.00014921
0.000150583
0.000151999
0.000153507
0.000155122
0.00015683
0.000158605
0.000160411
0.000162221
0.000164015
0.000165786
0.000167546
0.000169322
0.000171155
0.000173088
0.00017516
0.000177404
0.000179864
0.000182601
0.00018569
0.000189226
0.000193311
0.000198072
0.000203671
0.000210333
0.000218423
0.000228193
0.000240918
0.00025675
0.0002756
0.000311509
0.000325892
0.000415391
0.000375982
0.000540631
0.000371758
0.000226221
0.000280495
0.000408395
0.000137635
0.000103714
8.14442e-05
7.41956e-05
8.31433e-05
8.22205e-05
9.5963e-05
0.000100285
0.000105704
7.60589e-05
5.31597e-06
0.000106155
0.000166582
0.0001702
0.000168974
0.000165102
0.000158793
0.000151232
0.000143308
0.000135506
0.000128065
0.000121127
0.000114782
0.00010908
0.000104043
9.96646e-05
9.59257e-05
9.27928e-05
9.0223e-05
8.81677e-05
8.65747e-05
8.53915e-05
8.45675e-05
8.40556e-05
8.38135e-05
8.38037e-05
8.39934e-05
8.43546e-05
8.4863e-05
8.54974e-05
8.62395e-05
8.70728e-05
8.79822e-05
8.89536e-05
8.99736e-05
9.10297e-05
9.21084e-05
9.31901e-05
9.42694e-05
9.53438e-05
9.64157e-05
9.7494e-05
9.85945e-05
9.9741e-05
0.000100964
0.000102301
0.000103792
0.000105476
0.000107392
0.00010957
0.000112035
0.000114821
0.000117763
0.000121014
0.000124446
0.000127968
0.000131485
0.000134924
0.000138232
0.000140828
0.000142502
0.000144107
0.000145703
0.000147332
0.000149023
0.000150785
0.000152616
0.0001545
0.00015642
0.000158357
0.000160295
0.000162224
0.000164142
0.000166062
0.000168014
0.000170036
0.000172171
0.000174463
0.00017696
0.000179714
0.000182786
0.00018624
0.000190151
0.000194618
0.000199768
0.000205772
0.000212925
0.000221337
0.0002321
0.000244971
0.000259626
0.000286717
0.000293451
0.000347345
0.000314113
0.000441294
0.000336125
0.000201169
0.000280385
0.0004026
0.00017362
0.000118139
9.04013e-05
8.68694e-05
9.37747e-05
9.75755e-05
0.000114793
0.00012438
0.000135059
9.39153e-05
5.1997e-06
0.000106778
0.00016911
0.000172842
0.000171553
0.000167326
0.000160498
0.000152508
0.000144298
0.000136281
0.00012865
0.000121537
0.000115023
0.000109148
0.000103921
9.93314e-05
9.53524e-05
9.19486e-05
8.90776e-05
8.6693e-05
8.47467e-05
8.31911e-05
8.19808e-05
8.10737e-05
8.04321e-05
8.00226e-05
7.98166e-05
7.97895e-05
7.99208e-05
8.01933e-05
8.05924e-05
8.11058e-05
8.17228e-05
8.24337e-05
8.32294e-05
8.41016e-05
8.50427e-05
8.60458e-05
8.70974e-05
8.81938e-05
8.93364e-05
9.05311e-05
9.17892e-05
9.31278e-05
9.45698e-05
9.61423e-05
9.78745e-05
9.97961e-05
0.000101933
0.000104303
0.000106977
0.000109799
0.000112905
0.000116236
0.000119712
0.000123284
0.000126884
0.00013046
0.000133975
0.000136165
0.000137863
0.000139555
0.000141274
0.000143037
0.000144855
0.000146732
0.000148664
0.000150644
0.000152661
0.000154704
0.00015676
0.000158819
0.000160874
0.000162925
0.000164987
0.000167087
0.000169266
0.000171571
0.00017405
0.000176753
0.000179727
0.000183015
0.000186666
0.000190744
0.000195336
0.000200552
0.000206599
0.000213447
0.000221953
0.000231527
0.000241772
0.000260569
0.000261838
0.000293551
0.000266039
0.000361551
0.000300987
0.000183725
0.000280878
0.000232014
0.000221245
0.000132195
9.89824e-05
9.83293e-05
0.000104241
0.000116231
0.00013696
0.000157454
0.000177785
0.000119034
5.09008e-06
0.000107539
0.000173373
0.000177129
0.000175484
0.000170514
0.000162854
0.000154214
0.000145526
0.000137117
0.000129151
0.000121753
0.000114989
0.000108882
0.000103429
9.86083e-05
9.43865e-05
9.07242e-05
8.75769e-05
8.48987e-05
8.26434e-05
8.0766e-05
7.92246e-05
7.79807e-05
7.69999e-05
7.62522e-05
7.5712e-05
7.5358e-05
7.51728e-05
7.51423e-05
7.52555e-05
7.55037e-05
7.58799e-05
7.63785e-05
7.69949e-05
7.77252e-05
7.85661e-05
7.95143e-05
8.05665e-05
8.17121e-05
8.29483e-05
8.42768e-05
8.57038e-05
8.724e-05
8.8901e-05
9.07059e-05
9.26762e-05
9.48331e-05
9.71967e-05
9.98014e-05
0.000102597
0.000105592
0.000108868
0.000112311
0.000115897
0.000119578
0.000123302
0.000127038
0.000130757
0.000132279
0.000133906
0.000135591
0.00013734
0.000139156
0.000141039
0.000142985
0.000144989
0.000147043
0.00014914
0.000151269
0.00015342
0.000155584
0.00015775
0.000159912
0.000162073
0.000164246
0.00016646
0.000168756
0.000171182
0.000173783
0.000176598
0.000179657
0.000182986
0.000186616
0.000190593
0.000194968
0.000199865
0.000205149
0.000211446
0.000218024
0.000224448
0.000236407
0.000233962
0.000251705
0.000227742
0.000294584
0.000259842
0.00016785
0.000278108
0.000166611
0.000287137
0.000148461
0.000107823
0.000106285
0.000115346
0.000138101
0.000163463
0.000203474
0.000242189
0.000156153
4.98755e-06
0.000108442
0.000179625
0.000183266
0.000180875
0.000174703
0.000165879
0.000156352
0.000146972
0.000137993
0.00012956
0.000121779
0.000114695
0.000108309
0.000102601
9.75367e-05
9.30744e-05
8.91679e-05
8.57692e-05
8.28309e-05
8.03066e-05
7.81529e-05
7.63295e-05
7.48002e-05
7.3533e-05
7.25005e-05
7.16794e-05
7.10511e-05
7.06007e-05
7.03172e-05
7.01924e-05
7.02212e-05
7.04007e-05
7.07301e-05
7.12105e-05
7.18441e-05
7.26329e-05
7.35774e-05
7.46758e-05
7.59228e-05
7.73044e-05
7.8815e-05
8.0453e-05
8.22218e-05
8.41294e-05
8.6188e-05
8.84125e-05
9.08177e-05
9.34175e-05
9.62734e-05
9.92249e-05
0.000102468
0.000105906
0.000109514
0.000113253
0.000117082
0.000120963
0.000124872
0.00012791
0.000129311
0.000130787
0.000132366
0.000134047
0.000135824
0.000137689
0.000139634
0.000141652
0.000143735
0.000145875
0.000148063
0.000150285
0.00015253
0.000154784
0.000157036
0.000159281
0.000161518
0.00016376
0.000166039
0.000168394
0.000170864
0.000173483
0.000176271
0.00017924
0.000182395
0.000185743
0.000189289
0.000193086
0.000196942
0.000201285
0.000205405
0.000208741
0.000215239
0.000210128
0.000218752
0.000196882
0.000240871
0.000219226
0.000153847
0.000267573
0.000139957
0.000282914
0.000162962
0.000117302
0.000111322
0.000129896
0.000162119
0.00019507
0.000265756
0.000337691
0.000215874
4.89245e-06
0.00010949
0.000188269
0.000191554
0.000187878
0.000179949
0.000169586
0.000158897
0.000148594
0.000138871
0.000129849
0.000121602
0.00011414
0.00010744
0.000101459
9.61483e-05
9.14534e-05
8.73204e-05
8.3696e-05
8.05297e-05
7.7774e-05
7.53852e-05
7.33238e-05
7.15549e-05
7.00478e-05
6.8777e-05
6.77211e-05
6.68635e-05
6.61916e-05
6.5697e-05
6.53747e-05
6.52239e-05
6.52472e-05
6.54515e-05
6.58463e-05
6.6442e-05
6.72468e-05
6.82644e-05
6.94917e-05
7.09189e-05
7.253e-05
7.43008e-05
7.62183e-05
7.82764e-05
8.04754e-05
8.28216e-05
8.5326e-05
8.80009e-05
9.08895e-05
9.38973e-05
9.7153e-05
0.000100629
0.000104271
0.000108069
0.00011199
0.000115994
0.000120054
0.000124148
0.000126292
0.000127397
0.00012863
0.000130009
0.000131528
0.000133172
0.00013493
0.000136791
0.00013875
0.000140798
0.000142925
0.000145124
0.00014738
0.000149676
0.000151993
0.000154313
0.000156621
0.000158909
0.000161178
0.00016344
0.000165721
0.000168052
0.00017046
0.00017296
0.000175554
0.000178232
0.000180972
0.000183741
0.000186544
0.000189159
0.000191861
0.000193999
0.000194905
0.00019717
0.000190213
0.00019283
0.000172573
0.000199967
0.000185476
0.000144315
0.000248422
0.000126693
0.000270037
0.000171104
0.000123717
0.000121456
0.000149633
0.000193213
0.000228169
0.000335331
0.000443557
0.000320395
4.80507e-06
0.000110677
0.00019992
0.000202418
0.000196678
0.000186297
0.000173952
0.00016179
0.00015032
0.000139688
0.000129972
0.000121191
0.000113312
0.000106277
0.000100019
9.44663e-05
8.95532e-05
8.52154e-05
8.13927e-05
7.80306e-05
7.50791e-05
7.24935e-05
7.02342e-05
6.82664e-05
6.65606e-05
6.50922e-05
6.38414e-05
6.2793e-05
6.19367e-05
6.12668e-05
6.07829e-05
6.04908e-05
6.04034e-05
6.05392e-05
6.09197e-05
6.15649e-05
6.24883e-05
6.36929e-05
6.51688e-05
6.68935e-05
6.88353e-05
7.09601e-05
7.32383e-05
7.56475e-05
7.81796e-05
8.08384e-05
8.36349e-05
8.65892e-05
8.9747e-05
9.30041e-05
9.65417e-05
0.000100252
0.000104131
0.000108151
0.00011228
0.000116479
0.000120735
0.000125027
0.000125932
0.000126657
0.000127564
0.000128655
0.000129916
0.000131332
0.000132885
0.00013457
0.000136382
0.000138316
0.000140366
0.000142518
0.000144757
0.000147062
0.000149408
0.000151769
0.000154121
0.000156444
0.000158729
0.000160973
0.000163186
0.000165385
0.000167589
0.000169807
0.000172036
0.000174256
0.000176429
0.000178501
0.000180436
0.000182006
0.000183371
0.000183892
0.000183012
0.000182175
0.000174164
0.000172823
0.00015432
0.000169713
0.000160214
0.00014076
0.000221815
0.000116753
0.000259611
0.000175992
0.000124545
0.000151017
0.000174574
0.0002457
0.000261459
0.000383125
0.000478891
0.000525062
4.72566e-06
0.000111988
0.000215507
0.000216435
0.00020746
0.000193738
0.000178893
0.000164907
0.000152033
0.000140349
0.000129859
0.000120501
0.000112186
0.000104814
9.82845e-05
9.2507e-05
8.73976e-05
8.28811e-05
7.889e-05
7.53646e-05
7.22519e-05
6.95055e-05
6.7085e-05
6.49554e-05
6.30877e-05
6.14576e-05
6.00465e-05
5.88407e-05
5.78322e-05
5.70198e-05
5.64116e-05
5.60268e-05
5.58951e-05
5.60525e-05
5.65341e-05
5.73668e-05
5.8564e-05
6.01202e-05
6.20049e-05
6.41731e-05
6.65671e-05
6.91269e-05
7.18049e-05
7.45731e-05
7.74203e-05
8.03499e-05
8.33862e-05
8.66011e-05
8.98917e-05
9.34762e-05
9.72783e-05
0.000101287
0.000105459
0.000109762
0.000114157
0.000118606
0.000123095
0.000126768
0.000126905
0.000127211
0.00012773
0.000128451
0.000129361
0.000130445
0.000131693
0.0001331
0.000134666
0.000136393
0.000138281
0.000140314
0.000142475
0.000144738
0.000147072
0.000149441
0.000151812
0.000154153
0.000156441
0.000158662
0.000160812
0.000162893
0.000164913
0.000166874
0.000168766
0.000170567
0.000172231
0.000173695
0.000174897
0.000175613
0.000175928
0.000175179
0.000173114
0.000170175
0.000161875
0.00015788
0.000141559
0.000147681
0.000142731
0.000144421
0.000195955
0.000107401
0.00025004
0.000186918
0.000131645
0.00020214
0.000220459
0.000345375
0.000303149
0.000396861
0.00044103
0.000937871
4.65446e-06
0.000113394
0.000236412
0.000234341
0.000220353
0.000202165
0.000184234
0.000168055
0.000153565
0.000140724
0.000129416
0.00011947
0.000110726
0.000103034
9.62578e-05
9.02821e-05
8.50057e-05
8.03416e-05
7.62145e-05
7.25591e-05
6.93193e-05
6.64466e-05
6.38992e-05
6.16419e-05
5.96454e-05
5.78858e-05
5.63452e-05
5.50117e-05
5.38819e-05
5.2965e-05
5.22879e-05
5.18952e-05
5.18431e-05
5.21888e-05
5.29717e-05
5.42231e-05
5.59541e-05
5.81426e-05
6.07284e-05
6.36098e-05
6.66523e-05
6.97259e-05
7.27519e-05
7.57218e-05
7.86793e-05
8.16883e-05
8.48185e-05
8.81269e-05
9.15672e-05
9.53175e-05
9.92805e-05
0.00010348
0.000107906
0.00011253
0.000117305
0.000122166
0.000127012
0.000129501
0.000129234
0.000129137
0.000129245
0.000129545
0.000130025
0.000130678
0.000131508
0.000132521
0.000133729
0.000135142
0.000136766
0.000138592
0.0001406
0.000142759
0.000145031
0.00014737
0.00014973
0.000152068
0.000154348
0.000156541
0.000158631
0.000160608
0.000162465
0.0001642
0.000165799
0.000167234
0.000168458
0.000169408
0.000170013
0.000170061
0.000169602
0.000167952
0.000165176
0.000161031
0.00015304
0.000147286
0.000133588
0.000131979
0.000131581
0.000154984
0.00018554
0.000102811
0.000238836
0.000208894
0.000156922
0.000309962
0.000338083
0.000557663
0.000348618
0.000398905
0.000389807
0.00114389
4.59174e-06
0.000114847
0.000264532
0.000256918
0.000235287
0.000211273
0.000189649
0.000170935
0.000154683
0.000140645
0.000128527
0.000118024
0.000108891
0.000100919
9.39361e-05
8.78007e-05
8.23943e-05
7.76185e-05
7.33902e-05
6.96392e-05
6.63061e-05
6.33404e-05
6.0699e-05
5.83458e-05
5.62512e-05
5.43917e-05
5.27501e-05