/*--------------------------------*- C++ -*----------------------------------*\
| =========                 |                                                 |
| \\      /  F ield         | OpenFOAM: The Open Source CFD Toolbox           |
|  \\    /   O peration     | Version:  v2106                                 |
|   \\  /    A nd           | Website:  www.openfoam.com                      |
|    \\/     M anipulation  |                                                 |
\*---------------------------------------------------------------------------*/
FoamFile
{
    version     2.0;
    format      ascii;
    arch        "LSB;label=32;scalar=64";
    class       volScalarField;
    location    "1.9";
    object      omega;
}
// * * * * * * * * * * * * * * * * * * * * * * * * * * * * * * * * * * * * * //

dimensions      [0 0 -1 0 0 0 0];

internalField   nonuniform List<scalar> 
29678
(
6.84133
1.54879
0.65313
0.378193
0.264229
0.207921
0.178988
0.164612
0.158261
0.156571
0.157726
0.160482
0.164514
0.169996
0.177723
0.189859
0.213538
0.239147
0.251116
0.256513
0.258679
0.25913
0.257724
0.255459
0.252352
0.249335
0.245598
0.241833
0.238299
0.23508
0.231807
0.228485
0.2253
0.22227
0.219393
0.216633
0.213936
0.211154
0.208326
0.205603
0.203111
0.200975
0.199232
0.197877
0.197057
0.196794
0.196827
0.197149
0.198062
0.199675
0.201889
0.204827
0.208678
0.213486
0.219519
0.259934
0.323961
0.333745
0.324186
0.316054
0.309423
0.304296
0.300779
0.298905
0.29913
0.302814
0.435667
0.350512
0.343088
0.3439
0.34021
0.331489
0.339002
0.354599
0.366349
0.371608
0.368593
0.387363
0.436798
0.387949
0.415569
0.375988
0.329567
0.305948
0.306261
0.310397
0.331001
0.293209
0.276075
0.295056
0.291846
0.29892
0.437784
0.547186
0.612491
0.792759
1.02404
1.6788
1.88997
1.64679
1.27836
1.10699
0.937464
0.820352
0.702345
0.610502
0.497789
0.382494
0.26336
0.189095
6.8425
1.56146
0.659826
0.381585
0.265292
0.208658
0.18038
0.166766
0.161282
0.160334
0.16185
0.164986
0.169356
0.17488
0.181832
0.191398
0.206622
0.223707
0.233995
0.239168
0.241685
0.242817
0.242857
0.241912
0.240098
0.238125
0.235396
0.232664
0.229988
0.22748
0.224833
0.222117
0.219474
0.21691
0.214434
0.212019
0.209641
0.20721
0.204785
0.202496
0.200424
0.198647
0.197254
0.196307
0.195931
0.196119
0.196703
0.197708
0.199331
0.201641
0.2046
0.208268
0.212359
0.216541
0.220517
0.225246
0.230357
0.231249
0.232276
0.23294
0.233934
0.235833
0.238871
0.242382
0.245754
0.244353
0.236033
0.240624
0.238594
0.238053
0.233217
0.232263
0.230095
0.230663
0.234356
0.237156
0.233745
0.223186
0.225239
0.229932
0.232563
0.232368
0.229254
0.231521
0.245065
0.251355
0.238742
0.230683
0.228409
0.234979
0.235504
0.245095
0.267107
0.302448
0.388013
0.589907
0.856395
1.18728
1.68925
1.58906
1.31627
1.18456
0.97381
0.842815
0.689308
0.568153
0.439659
0.332575
0.246309
0.194095
6.84449
1.57434
0.666304
0.384245
0.266326
0.209451
0.181185
0.167565
0.162023
0.160925
0.162266
0.165191
0.169334
0.174683
0.181422
0.189606
0.198397
0.20615
0.212567
0.217625
0.221435
0.224229
0.226169
0.22741
0.227658
0.227183
0.226062
0.224536
0.22278
0.22089
0.218853
0.216699
0.2145
0.212291
0.210089
0.207895
0.205705
0.203514
0.201364
0.199328
0.197465
0.195843
0.194537
0.193605
0.193107
0.193067
0.193415
0.194107
0.195199
0.196749
0.198751
0.201202
0.204113
0.207487
0.211184
0.21378
0.213937
0.213492
0.213396
0.213562
0.214034
0.214735
0.215537
0.216339
0.217193
0.21783
0.212883
0.209669
0.206639
0.204519
0.201733
0.198249
0.194762
0.192503
0.191226
0.19028
0.189354
0.187149
0.187499
0.188491
0.192516
0.198662
0.204434
0.211144
0.217227
0.221897
0.217103
0.21387
0.213431
0.21431
0.216938
0.224894
0.23904
0.265883
0.327709
0.506892
0.790081
1.15598
1.45392
1.47429
1.34101
1.17535
0.983156
0.848339
0.700028
0.570978
0.438116
0.325722
0.245208
0.195046
6.84727
1.5865
0.672644
0.386661
0.26724
0.210204
0.181873
0.168136
0.162419
0.16112
0.162231
0.164851
0.168527
0.173062
0.178397
0.184595
0.1918
0.199506
0.206158
0.211326
0.215169
0.217971
0.219948
0.221293
0.222049
0.221996
0.221281
0.220138
0.218715
0.217101
0.21532
0.213418
0.211451
0.20945
0.207434
0.205409
0.203384
0.201369
0.199402
0.197538
0.195832
0.194354
0.193183
0.192382
0.192
0.192051
0.192494
0.193301
0.194483
0.196041
0.197928
0.200059
0.20229
0.204366
0.205884
0.20663
0.206764
0.20665
0.206533
0.206698
0.207332
0.208433
0.209824
0.21117
0.211884
0.210794
0.207061
0.203815
0.20176
0.200515
0.198181
0.194562
0.191842
0.190642
0.190027
0.189155
0.187565
0.185344
0.184988
0.186497
0.190175
0.197317
0.203772
0.210291
0.216391
0.219467
0.215489
0.21445
0.215168
0.216952
0.222149
0.232172
0.246207
0.272455
0.322353
0.452775
0.698099
0.992714
1.29654
1.34891
1.33146
1.11823
0.970064
0.842856
0.714216
0.593348
0.47006
0.35887
0.271226
0.210226
6.85071
1.59781
0.678385
0.388896
0.26818
0.210993
0.182587
0.168732
0.162851
0.16136
0.162259
0.164613
0.167923
0.171949
0.176573
0.181682
0.18703
0.192196
0.196808
0.200778
0.20414
0.206955
0.209277
0.211161
0.212581
0.213321
0.213519
0.213294
0.212739
0.211924
0.210893
0.209687
0.208348
0.206906
0.205384
0.203801
0.202178
0.200541
0.198929
0.197391
0.195981
0.194762
0.193807
0.193175
0.192909
0.193019
0.19348
0.194261
0.195339
0.196681
0.198222
0.199865
0.201482
0.202913
0.203994
0.204581
0.204634
0.204454
0.204349
0.204468
0.204873
0.205483
0.206124
0.206614
0.206682
0.205986
0.20423
0.202128
0.200192
0.198347
0.196165
0.193599
0.19122
0.18932
0.187841
0.186716
0.185873
0.18532
0.185701
0.187319
0.190377
0.194921
0.199588
0.203971
0.207737
0.210314
0.211079
0.212359
0.214781
0.218532
0.22507
0.236196
0.252312
0.278674
0.326856
0.449922
0.685677
0.952076
1.11343
1.14651
1.32383
1.08347
0.942557
0.822022
0.709899
0.597704
0.480535
0.370257
0.280442
0.216073
6.85471
1.60851
0.683098
0.390786
0.269147
0.211803
0.183295
0.169315
0.163283
0.161622
0.162338
0.164465
0.167477
0.171104
0.175206
0.179681
0.184404
0.189181
0.193742
0.197892
0.201545
0.204688
0.207347
0.20956
0.211369
0.21281
0.213658
0.213949
0.213806
0.213322
0.212562
0.211583
0.210433
0.20915
0.207767
0.20631
0.204809
0.203296
0.201812
0.200403
0.199121
0.198022
0.197164
0.1966
0.196363
0.196463
0.196882
0.197587
0.198545
0.19971
0.201014
0.202367
0.203659
0.204762
0.205553
0.205944
0.205965
0.205805
0.205695
0.205765
0.206054
0.206525
0.207068
0.207567
0.207731
0.207249
0.206007
0.204443
0.20286
0.201238
0.199375
0.197306
0.195396
0.193865
0.192703
0.191845
0.191238
0.190946
0.191406
0.192929
0.195699
0.199681
0.203968
0.208067
0.211612
0.214194
0.215669
0.217583
0.220704
0.225387
0.23269
0.243968
0.260229
0.282626
0.323288
0.42448
0.642746
0.917446
1.03167
1.05454
1.31671
1.03996
0.892932
0.782228
0.686382
0.588522
0.483129
0.380187
0.291609
0.224216
6.85916
1.61806
0.686952
0.392411
0.27011
0.212595
0.183958
0.169851
0.163686
0.161886
0.162457
0.164405
0.167184
0.170511
0.174234
0.178244
0.182424
0.186616
0.190652
0.194411
0.197831
0.200895
0.203607
0.205983
0.208044
0.209813
0.211118
0.211927
0.212329
0.212393
0.212172
0.211714
0.211059
0.210244
0.209298
0.208254
0.207143
0.206
0.204865
0.203781
0.202797
0.201961
0.201325
0.200932
0.200812
0.200974
0.201405
0.202076
0.20295
0.203978
0.205096
0.206224
0.207272
0.208149
0.208779
0.209125
0.209219
0.209169
0.209115
0.209162
0.209324
0.209534
0.209734
0.209853
0.209735
0.209212
0.208234
0.206933
0.205445
0.203807
0.202006
0.200104
0.198273
0.196669
0.195392
0.194495
0.193991
0.193915
0.194435
0.195724
0.197878
0.200801
0.204053
0.20728
0.210287
0.213008
0.21556
0.218589
0.222742
0.228515
0.236834
0.248864
0.266501
0.288046
0.32679
0.417171
0.61526
0.870777
0.958213
0.974321
1.28197
0.996729
0.829094
0.729655
0.647143
0.565699
0.473136
0.379479
0.295334
0.228546
6.86397
1.62612
0.690047
0.393812
0.271025
0.213318
0.18453
0.170306
0.164044
0.162147
0.162618
0.164438
0.167048
0.170161
0.173622
0.177328
0.181186
0.185089
0.188927
0.192608
0.196069
0.199274
0.202209
0.204869
0.207259
0.209389
0.21127
0.212737
0.213746
0.214368
0.214661
0.214674
0.214451
0.214033
0.213453
0.212749
0.211954
0.211107
0.210247
0.209417
0.208662
0.208025
0.207552
0.207279
0.207229
0.207411
0.207812
0.208406
0.209156
0.210013
0.210921
0.211811
0.212614
0.213266
0.213718
0.213952
0.213991
0.213904
0.213795
0.213718
0.213678
0.213654
0.213667
0.213639
0.213432
0.21293
0.212086
0.210957
0.209618
0.208111
0.206463
0.204743
0.203073
0.201581
0.200361
0.199477
0.198964
0.198877
0.199336
0.200467
0.202323
0.20482
0.207667
0.210595
0.213465
0.216283
0.219218
0.222713
0.227316
0.233583
0.242178
0.253901
0.270584
0.290287
0.326559
0.406077
0.585683
0.817521
0.909386
0.925499
1.23347
0.960775
0.757906
0.666714
0.595189
0.531049
0.453272
0.372082
0.295485
0.231522
6.86903
1.63245
0.692428
0.394995
0.271844
0.213921
0.184974
0.170659
0.164345
0.162406
0.162828
0.164572
0.167074
0.170044
0.173331
0.176844
0.180505
0.184235
0.187956
0.191596
0.195097
0.19842
0.201542
0.204447
0.207131
0.209593
0.211838
0.213863
0.215478
0.216692
0.217555
0.218113
0.218408
0.21848
0.218364
0.218096
0.217713
0.21725
0.216746
0.216242
0.215778
0.215395
0.215129
0.215012
0.215063
0.215289
0.215679
0.216209
0.216846
0.217546
0.218261
0.218936
0.219521
0.219968
0.220247
0.220348
0.220292
0.220146
0.219949
0.219731
0.2195
0.219261
0.219048
0.218797
0.218413
0.217813
0.216953
0.215849
0.214535
0.213045
0.211423
0.209735
0.208084
0.206577
0.205308
0.204354
0.203766
0.203603
0.203943
0.204856
0.206353
0.208364
0.210708
0.213223
0.215857
0.218676
0.221854
0.225699
0.230645
0.237293
0.246065
0.257472
0.273303
0.291718
0.326163
0.396116
0.554507
0.759142
0.860101
0.879334
1.18494
0.927625
0.690469
0.601464
0.540111
0.491304
0.427287
0.35914
0.291628
0.232491
6.87425
1.63693
0.694106
0.395948
0.272517
0.214359
0.18526
0.170896
0.164589
0.162667
0.163095
0.164813
0.167258
0.170145
0.173331
0.176734
0.180293
0.183947
0.187636
0.191304
0.194899
0.198382
0.201725
0.204905
0.207909
0.21073
0.213363
0.215808
0.218061
0.219952
0.221467
0.222648
0.223536
0.22417
0.224585
0.224816
0.224899
0.224869
0.224763
0.224618
0.224469
0.224354
0.224304
0.224346
0.224495
0.224756
0.225121
0.22557
0.226074
0.226598
0.227102
0.227545
0.227888
0.228101
0.228163
0.228068
0.227863
0.227561
0.227184
0.226751
0.226268
0.225796
0.225354
0.224889
0.224325
0.223595
0.222658
0.221512
0.220172
0.218669
0.217043
0.215357
0.213692
0.212141
0.210794
0.209728
0.209007
0.208695
0.208852
0.209519
0.210691
0.212314
0.214274
0.216479
0.218924
0.221693
0.224953
0.228947
0.234001
0.240694
0.249133
0.259806
0.274492
0.291367
0.323341
0.386092
0.53002
0.710647
0.804902
0.824294
1.14455
0.901324
0.640392
0.543906
0.492141
0.454303
0.400032
0.343454
0.285085
0.231897
6.87953
1.63946
0.695082
0.396645
0.272998
0.214599
0.185373
0.171015
0.16478
0.16294
0.163425
0.165165
0.167599
0.170455
0.173601
0.176967
0.180502
0.184161
0.187893
0.191653
0.195395
0.19908
0.202679
0.206164
0.209519
0.212727
0.215779
0.218668
0.221389
0.223938
0.226213
0.22811
0.229686
0.230974
0.232009
0.232824
0.233452
0.233927
0.23428
0.234545
0.234754
0.234938
0.235124
0.235334
0.235584
0.235876
0.236207
0.236561
0.236917
0.237248
0.237524
0.237716
0.237797
0.237747
0.237552
0.237244
0.236828
0.236303
0.235686
0.23499
0.234223
0.233502
0.232817
0.232121
0.231347
0.230436
0.229351
0.228084
0.226644
0.225057
0.22336
0.221607
0.219867
0.21822
0.216746
0.215523
0.214623
0.214111
0.214041
0.214441
0.2153
0.216576
0.218201
0.22013
0.222385
0.225055
0.22829
0.232295
0.237253
0.243673
0.251536
0.261375
0.274879
0.290237
0.319979
0.376671
0.509767
0.677591
0.759726
0.775149
1.11625
0.892319
0.607395
0.500813
0.456345
0.425074
0.375686
0.32753
0.277012
0.230103
6.88476
1.63999
0.695357
0.397049
0.273247
0.214621
0.185311
0.171022
0.16493
0.163233
0.163825
0.165628
0.168096
0.170971
0.174137
0.177532
0.181116
0.184849
0.188692
0.192604
0.196547
0.200484
0.204382
0.208216
0.211961
0.215599
0.219115
0.222496
0.22573
0.228812
0.231734
0.234476
0.236849
0.238905
0.240666
0.242164
0.243428
0.244487
0.245369
0.246101
0.246711
0.247225
0.247665
0.248053
0.248402
0.248718
0.249002
0.249245
0.249434
0.249551
0.249578
0.249494
0.249283
0.248932
0.24846
0.247889
0.247189
0.246373
0.245453
0.244439
0.243383
0.242375
0.241406
0.240436
0.239406
0.238262
0.236969
0.235515
0.233909
0.232173
0.230343
0.228464
0.226595
0.224804
0.223162
0.221743
0.22062
0.219861
0.21952
0.219619
0.220151
0.221089
0.222395
0.224055
0.226104
0.228629
0.231753
0.235651
0.240334
0.246317
0.253578
0.262631
0.275054
0.289038
0.317159
0.369539
0.494954
0.659066
0.73246
0.742756
1.10472
0.900019
0.587099
0.470598
0.424985
0.40116
0.355645
0.312997
0.268501
0.227563
6.88983
1.63852
0.694941
0.397124
0.273234
0.214419
0.185078
0.170928
0.16505
0.163558
0.164303
0.166212
0.168759
0.171706
0.174949
0.178435
0.182131
0.186004
0.190021
0.194149
0.198351
0.202595
0.206849
0.211084
0.215276
0.2194
0.223439
0.227373
0.231188
0.234869
0.238407
0.24179
0.245009
0.247992
0.250601
0.252898
0.2549
0.25663
0.258112
0.259367
0.260419
0.26129
0.262003
0.262575
0.263023
0.263358
0.263584
0.263702
0.263707
0.263591
0.263344
0.262958
0.262422
0.261745
0.260981
0.260072
0.25903
0.257863
0.25658
0.25519
0.253798
0.252458
0.251166
0.249882
0.248551
0.247121
0.245559
0.243856
0.242018
0.240067
0.238037
0.235967
0.233908
0.231919
0.230063
0.228407
0.227021
0.225974
0.225319
0.225082
0.225267
0.225861
0.22685
0.228238
0.230064
0.232406
0.235359
0.239057
0.243389
0.24892
0.255635
0.263973
0.275468
0.288274
0.315407
0.365187
0.484697
0.653076
0.724056
0.730408
1.11089
0.922216
0.577777
0.451283
0.397662
0.378689
0.338027
0.299798
0.260058
0.224611
6.89462
1.63506
0.693869
0.396844
0.272938
0.213989
0.184679
0.170746
0.165159
0.163932
0.164876
0.166935
0.169608
0.172679
0.176054
0.179691
0.183561
0.187638
0.191895
0.196302
0.20083
0.205446
0.21012
0.214825
0.219532
0.224216
0.228853
0.233422
0.237902
0.242273
0.246519
0.250621
0.254563
0.25833
0.261902
0.265139
0.267986
0.270472
0.272615
0.274438
0.275962
0.277212
0.278208
0.278973
0.279523
0.279873
0.280035
0.280016
0.27982
0.279451
0.278906
0.278187
0.277292
0.276303
0.27516
0.273865
0.272425
0.270848
0.26914
0.267315
0.265529
0.263807
0.262141
0.260494
0.258809
0.257039
0.255151
0.253136
0.251001
0.24877
0.246472
0.244145
0.241835
0.239592
0.237471
0.235533
0.233845
0.232471
0.231465
0.23086
0.230672
0.230904
0.231564
0.232665
0.234249
0.236382
0.239128
0.242595
0.246603
0.251757
0.258019
0.265718
0.27646
0.288327
0.314778
0.363495
0.481883
0.654409
0.72698
0.732986
1.12901
0.957679
0.587483
0.439419
0.374009
0.354855
0.317869
0.284935
0.251152
0.221451
6.89902
1.62969
0.69219
0.396205
0.272359
0.213331
0.184118
0.170495
0.165283
0.164381
0.16557
0.167822
0.170668
0.173913
0.177477
0.181324
0.185432
0.189779
0.194345
0.199104
0.204029
0.209092
0.214266
0.219521
0.22483
0.230165
0.2355
0.240808
0.246063
0.251239
0.256312
0.261255
0.266041
0.270639
0.275015
0.279131
0.282927
0.286236
0.289087
0.291502
0.293511
0.295143
0.296424
0.297379
0.298027
0.298386
0.298472
0.298299
0.297879
0.297224
0.296344
0.295245
0.294005
0.292613
0.291041
0.289298
0.287396
0.285342
0.283147
0.28087
0.278631
0.276463
0.274365
0.272298
0.270207
0.268043
0.265772
0.263386
0.260892
0.258314
0.255682
0.253033
0.250407
0.24785
0.24541
0.243144
0.241112
0.239373
0.237981
0.236976
0.236386
0.236231
0.236536
0.237328
0.238648
0.240553
0.243086
0.246339
0.250109
0.255013
0.260953
0.268113
0.27823
0.289373
0.315608
0.364073
0.482529
0.65954
0.73763
0.743872
1.16777
1.0085
0.619351
0.439552
0.360588
0.333595
0.300485
0.269982
0.240213
0.217846
6.90292
1.62246
0.689952
0.39523
0.271511
0.212437
0.183403
0.17021
0.165462
0.16494
0.166417
0.168904
0.171971
0.175443
0.179253
0.183373
0.187785
0.192474
0.197422
0.202611
0.208017
0.213616
0.219381
0.225287
0.231305
0.237407
0.243563
0.249742
0.255913
0.262044
0.268099
0.274039
0.279819
0.285384
0.290673
0.29563
0.300204
0.304357
0.30794
0.310958
0.313448
0.31545
0.316996
0.318117
0.318835
0.319172
0.319146
0.318775
0.318077
0.317074
0.315783
0.314257
0.312586
0.310689
0.308588
0.306296
0.303824
0.301186
0.298396
0.295572
0.292813
0.290161
0.287611
0.285118
0.282616
0.280047
0.277376
0.274589
0.271696
0.268719
0.265694
0.262658
0.259653
0.256722
0.253909
0.251264
0.248841
0.246697
0.244885
0.243449
0.242428
0.241858
0.241776
0.242225
0.243253
0.244913
0.247239
0.25032
0.253948
0.258728
0.264474
0.271224
0.280792
0.291429
0.317633
0.365966
0.484785
0.665778
0.751808
0.758148
1.21571
1.08104
0.673954
0.45155
0.355821
0.314607
0.285767
0.256778
0.230462
0.213383
6.90624
1.61342
0.687199
0.393967
0.270411
0.211305
0.182567
0.169947
0.165744
0.165648
0.167452
0.170219
0.173556
0.177312
0.181429
0.185888
0.190676
0.195782
0.201197
0.206904
0.212886
0.219122
0.225592
0.23227
0.239129
0.246141
0.253275
0.260495
0.267764
0.27504
0.282275
0.289405
0.296355
0.303032
0.309349
0.315227
0.320612
0.32547
0.329781
0.333421
0.336401
0.338768
0.340561
0.341814
0.342553
0.342805
0.34259
0.341934
0.34086
0.339397
0.337574
0.335563
0.333276
0.330739
0.327974
0.325002
0.321845
0.318516
0.315037
0.311578
0.308219
0.305008
0.301938
0.298956
0.295991
0.292979
0.289877
0.286669
0.283355
0.279954
0.276499
0.273029
0.26959
0.266228
0.262987
0.259912
0.257053
0.254462
0.252193
0.250295
0.248814
0.247796
0.247294
0.247363
0.24806
0.24945
0.25157
0.254512
0.258075
0.262803
0.268424
0.274952
0.28412
0.294597
0.320816
0.368647
0.488162
0.673297
0.767968
0.775059
1.27848
1.185
0.748341
0.470359
0.355056
0.299531
0.273685
0.245481
0.2221
0.206609
6.90892
1.60265
0.683969
0.392484
0.269069
0.209949
0.18167
0.169772
0.166182
0.166549
0.16872
0.171812
0.175474
0.179573
0.184064
0.188933
0.194174
0.199784
0.205756
0.212082
0.21875
0.225745
0.233051
0.240649
0.248513
0.256616
0.264926
0.273404
0.282005
0.290673
0.299332
0.307879
0.316186
0.324122
0.331574
0.338463
0.344735
0.350364
0.355333
0.359625
0.363127
0.365873
0.367906
0.369261
0.369972
0.370067
0.369576
0.36853
0.366964
0.36491
0.362519
0.35983
0.356808
0.353494
0.349925
0.346134
0.342148
0.337988
0.333718
0.329497
0.325418
0.321526
0.31781
0.314212
0.310656
0.307079
0.303435
0.299707
0.295893
0.292007
0.288075
0.284131
0.280215
0.276374
0.272653
0.269099
0.265758
0.26268
0.259918
0.257524
0.255551
0.254056
0.2531
0.25275
0.253076
0.254155
0.256044
0.25885
0.262384
0.26709
0.272626
0.279205
0.288279
0.299103
0.325427
0.372058
0.492821
0.683605
0.787425
0.795161
1.36998
1.31499
0.827617
0.492066
0.35778
0.291099
0.265569
0.237455
0.216057
0.200638
6.91088
1.59028
0.680315
0.390845
0.267475
0.208403
0.180801
0.169758
0.166831
0.167691
0.17027
0.173739
0.177784
0.182292
0.187228
0.192585
0.198366
0.204572
0.211205
0.218264
0.225746
0.233643
0.241947
0.250644
0.259716
0.269137
0.278876
0.288891
0.299125
0.309493
0.319864
0.330068
0.339921
0.349265
0.357986
0.366012
0.373295
0.379806
0.38552
0.390423
0.394489
0.39763
0.399883
0.401292
0.401893
0.401727
0.400835
0.39926
0.397049
0.394278
0.391192
0.387649
0.383721
0.379458
0.374912
0.370129
0.365144
0.359989
0.354777
0.349662
0.34474
0.340052
0.335571
0.331231
0.326952
0.322667
0.318336
0.313944
0.309494
0.305003
0.300494
0.295996
0.29154
0.287165
0.282913
0.278829
0.274961
0.271355
0.268063
0.26514
0.262645
0.260641
0.259199
0.258395
0.258309
0.259031
0.260642
0.263268
0.266757
0.271475
0.277001
0.283964
0.293366
0.305116
0.331828
0.376658
0.499366
0.697958
0.812947
0.821584
1.48943
1.45446
0.890835
0.516017
0.364722
0.290246
0.262679
0.233479
0.213017
0.197145
6.91206
1.57652
0.6763
0.389091
0.265626
0.206728
0.180058
0.169978
0.16775
0.16913
0.172164
0.176067
0.180559
0.185547
0.191006
0.196937
0.20335
0.210256
0.217666
0.22559
0.234033
0.243002
0.252497
0.262516
0.273048
0.284077
0.295572
0.307487
0.319735
0.332165
0.344556
0.356661
0.368268
0.379224
0.389427
0.3988
0.407288
0.414841
0.421416
0.426976
0.431493
0.434953
0.437356
0.438701
0.43903
0.43841
0.436908
0.434598
0.431535
0.428
0.423942
0.419373
0.414351
0.408948
0.403232
0.397267
0.391097
0.384766
0.378455
0.372318
0.366446
0.360858
0.355504
0.350303
0.34517
0.340038
0.33487
0.329657
0.324412
0.319159
0.313927
0.308746
0.303644
0.29865
0.293796
0.289121
0.284669
0.280487
0.276624
0.273137
0.270087
0.267545
0.265588
0.264297
0.263763
0.264084
0.26536
0.267736
0.271111
0.275881
0.281497
0.289164
0.299351
0.312597
0.340096
0.383363
0.508804
0.717764
0.849435
0.859632
1.6363
1.58983
0.944662
0.549024
0.381547
0.298305
0.264857
0.233713
0.212904
0.196405
6.91236
1.56172
0.671982
0.387185
0.263537
0.205019
0.179541
0.170507
0.169006
0.170933
0.174476
0.178874
0.183885
0.189429
0.195493
0.20209
0.209238
0.21696
0.225277
0.234215
0.243794
0.254035
0.264958
0.276574
0.288889
0.301898
0.315577
0.329855
0.34457
0.359452
0.374182
0.388486
0.402167
0.415087
0.427131
0.43819
0.448187
0.457044
0.464601
0.47084
0.475737
0.479261
0.481419
0.482258
0.48184
0.48025
0.477651
0.474157
0.469948
0.465353
0.4602
0.454573
0.44842
0.441807
0.434819
0.427541
0.420042
0.412418
0.404908
0.397675
0.390782
0.384211
0.377887
0.371711
0.365595
0.359472
0.353312
0.347116
0.340907
0.334719
0.328593
0.322566
0.31667
0.310931
0.305371
0.300019
0.294911
0.290089
0.285603
0.281507
0.277866
0.274752
0.272248
0.27044
0.269425
0.269307
0.270195
0.27225
0.275427
0.280241
0.286011
0.294613
0.305939
0.321187
0.349937
0.393183
0.522707
0.744175
0.902775
0.915252
1.79722
1.72214
1.02916
0.603323
0.413057
0.316938
0.272345
0.237716
0.214702
0.197728
6.9117
1.54637
0.66741
0.384998
0.261247
0.203417
0.179356
0.171426
0.170675
0.173181
0.177289
0.182253
0.187856
0.194038
0.200797
0.208157
0.21615
0.224813
0.234185
0.244309
0.255228
0.266987
0.279628
0.293191
0.307706
0.323188
0.339603
0.356802
0.374475
0.392227
0.40972
0.426727
0.443054
0.458624
0.473021
0.486398
0.498755
0.509897
0.519542
0.52735
0.532987
0.536254
0.537194
0.536097
0.533391
0.529498
0.524731
0.519253
0.513406
0.506963
0.500021
0.492667
0.484972
0.476995
0.468789
0.460358
0.451579
0.442726
0.434088
0.425807
0.417903
0.410321
0.402963
0.39572
0.388502
0.381248
0.373938
0.366588
0.359234
0.351927
0.344721
0.337665
0.3308
0.324156
0.317752
0.311606
0.305744
0.3002
0.29502
0.290255
0.285971
0.282241
0.279151
0.276792
0.275263
0.274669
0.275122
0.276797
0.279702
0.284498
0.29045
0.299969
0.312552
0.330213
0.360671
0.406287
0.541073
0.777451
0.978245
0.992424
1.93777
1.84095
1.16569
0.70024
0.461525
0.342708
0.284081
0.243368
0.217014
0.199403
6.90997
1.53114
0.662664
0.382355
0.25878
0.202073
0.179612
0.172819
0.172841
0.17597
0.180702
0.186305
0.192581
0.199484
0.207029
0.215254
0.22421
0.233952
0.244543
0.256054
0.268559
0.282136
0.296865
0.312827
0.330093
0.348692
0.368521
0.389253
0.410424
0.431648
0.452667
0.473271
0.493435
0.513902
0.53451
0.554908
0.574652
0.593173
0.609648
0.622903
0.631565
0.63454
0.631593
0.62362
0.612349
0.599659
0.586949
0.575105
0.564697
0.554809
0.545131
0.535421
0.52553
0.515463
0.505307
0.495103
0.484882
0.475304
0.465822
0.456666
0.44785
0.439299
0.430906
0.422552
0.414147
0.40564
0.397028
0.388347
0.379657
0.371031
0.362542
0.354257
0.346229
0.338496
0.331081
0.323997
0.317259
0.310888
0.304923
0.299411
0.294415
0.290009
0.286279
0.283321
0.281234
0.280123
0.280101
0.281346
0.283918
0.28859
0.294692
0.3049
0.31857
0.338724
0.371058
0.42138
0.562293
0.817271
1.07167
1.08559
2.03325
1.93709
1.34127
0.82955
0.520268
0.369642
0.294533
0.247604
0.218689
0.19959
6.90712
1.51689
0.65786
0.379083
0.256144
0.201122
0.180415
0.174782
0.175602
0.179403
0.184824
0.191145
0.198171
0.205878
0.214299
0.223493
0.233535
0.244508
0.25651
0.269647
0.284039
0.299814
0.317111
0.336073
0.356822
0.379344
0.403336
0.428281
0.453744
0.479512
0.50588
0.535125
0.567835
0.60407
0.643387
0.684961
0.727736
0.77037
0.810707
0.845249
0.86927
0.877806
0.867936
0.840511
0.800271
0.754326
0.70966
0.673366
0.6451
0.622505
0.603674
0.58731
0.572562
0.558876
0.545876
0.533273
0.520918
0.510049
0.500062
0.490196
0.480588
0.471171
0.461811
0.45237
0.442748
0.432905
0.42286
0.412678
0.402455
0.392296
0.382305
0.37257
0.363165
0.35414
0.345525
0.337333
0.32957
0.322248
0.315389
0.309034
0.30324
0.298079
0.293639
0.290016
0.287313
0.285635
0.285092
0.28586
0.288037
0.292452
0.298583
0.309161
0.323531
0.345788
0.379568
0.435798
0.584273
0.862274
1.15606
1.16969
2.15458
2.04065
1.54086
0.984218
0.573285
0.384635
0.299273
0.247815
0.217396
0.197361
6.90319
1.50424
0.653294
0.37516
0.253397
0.200709
0.181879
0.177418
0.179063
0.183592
0.189778
0.19689
0.204738
0.213321
0.222702
0.232969
0.244231
0.256609
0.270247
0.285305
0.301966
0.320434
0.340937
0.363707
0.388871
0.416215
0.445198
0.475408
0.506581
0.542791
0.587871
0.644881
0.715723
0.800166
0.895893
0.999368
1.1071
1.21579
1.32061
1.41455
1.48702
1.52389
1.51624
1.46125
1.3639
1.23659
1.09917
0.977986
0.876407
0.795999
0.734257
0.686997
0.650482
0.621749
0.598506
0.579024
0.562251
0.548548
0.537124
0.526493
0.516148
0.505957
0.49573
0.485277
0.474468
0.46326
0.451692
0.439866
0.427922
0.416011
0.40428
0.392854
0.381833
0.371289
0.361263
0.351771
0.342816
0.334396
0.326519
0.319212
0.312521
0.306513
0.301276
0.296908
0.293516
0.291204
0.290083
0.290319
0.292026
0.296035
0.301997
0.312572
0.32721
0.350699
0.38548
0.446433
0.602755
0.902033
1.21175
1.22522
2.33844
2.15978
1.69003
1.08492
0.612547
0.383999
0.2936
0.242757
0.211635
0.192257
6.89833
1.49351
0.649271
0.370839
0.250779
0.201013
0.184122
0.180834
0.183338
0.18866
0.195688
0.203652
0.212372
0.221891
0.232309
0.243759
0.256391
0.270383
0.285939
0.303293
0.322722
0.344542
0.369109
0.396732
0.42737
0.460497
0.49565
0.533925
0.584138
0.655314
0.757889
0.899584
1.08075
1.29308
1.52314
1.75637
1.9832
2.19506
2.38662
2.55326
2.68438
2.76466
2.77892
2.71631
2.57517
2.36458
2.11884
1.86421
1.62146
1.40221
1.21147
1.05024
0.917763
0.812338
0.731288
0.672204
0.630881
0.602558
0.582655
0.567992
0.555399
0.543926
0.532764
0.521358
0.509432
0.496884
0.483754
0.470176
0.456345
0.44247
0.428757
0.415381
0.402487
0.390173
0.378501
0.367496
0.357159
0.347477
0.338442
0.330059
0.322361
0.315405
0.309275
0.304069
0.299897
0.296869
0.295094
0.294726
0.295878
0.299324
0.304888
0.315041
0.329611
0.353065
0.388986
0.451394
0.612109
0.92317
1.23217
1.24701
2.46026
2.16926
1.60989
1.03399
0.578994
0.366722
0.280729
0.234473
0.203804
0.186013
6.89278
1.4855
0.645548
0.366447
0.248736
0.20223
0.187264
0.185142
0.188544
0.194733
0.202676
0.211515
0.221129
0.231626
0.243161
0.255918
0.270109
0.285977
0.303813
0.323954
0.346811
0.372866
0.402629
0.436321
0.473512
0.513541
0.560156
0.628248
0.738081
0.916034
1.18234
1.53584
1.95047
2.38717
2.80606
3.1788
3.49891
3.77073
4.00614
4.21179
4.38295
4.50454
4.55105
4.50041
4.34272
4.08707
3.77656
3.42178
3.05176
2.68633
2.33607
2.00551
1.7012
1.43024
1.19746
1.00678
0.861032
0.757122
0.686127
0.640884
0.612298
0.59185
0.575775
0.56165
0.548009
0.534006
0.519267
0.503865
0.488013
0.471982
0.456049
0.440458
0.42541
0.411051
0.397472
0.384717
0.372786
0.361659
0.351309
0.341717
0.332894
0.32488
0.31775
0.311604
0.306552
0.30271
0.300188
0.299128
0.299625
0.302358
0.307299
0.316617
0.330879
0.353031
0.390044
0.450833
0.611102
0.921236
1.21828
1.23281
2.42735
1.95821
1.34619
0.850661
0.493538
0.342524
0.267838
0.226812
0.19758
0.1817
6.88693
1.48151
0.642021
0.362313
0.247681
0.20454
0.191421
0.190457
0.194803
0.201941
0.210824
0.220505
0.231009
0.242528
0.255277
0.269505
0.285496
0.303585
0.324172
0.347748
0.374915
0.40638
0.442696
0.483663
0.528419
0.583298
0.671326
0.830801
1.11542
1.56433
2.16919
2.86931
3.57558
4.22002
4.76797
5.213
5.564
5.84474
6.08194
6.29409
6.4837
6.63237
6.70696
6.67385
6.51281
6.23558
5.86261
5.41888
4.93596
4.44251
3.95727
3.48835
3.03688
2.60416
2.19693
1.82404
1.49726
1.22941
1.02437
0.874845
0.770713
0.699872
0.652945
0.620991
0.597207
0.577459
0.559287
0.541429
0.523294
0.504888
0.486492
0.468415
0.450922
0.434222
0.418452
0.403681
0.389921
0.377144
0.365305
0.35438
0.344309
0.335117
0.32687
0.319666
0.313619
0.308849
0.305469
0.30361
0.303345
0.305227
0.309353
0.317497
0.331209
0.351232
0.388779
0.446075
0.602054
0.900099
1.18029
1.19322
2.31609
1.66747
1.08242
0.68353
0.435938
0.326285
0.260063
0.222171
0.194652
0.180377
6.8802
1.48046
0.637798
0.358438
0.247839
0.208026
0.196692
0.196891
0.202235
0.210388
0.22012
0.23057
0.241967
0.254575
0.26868
0.284601
0.302714
0.32347
0.347429
0.375295
0.407944
0.446282
0.49051
0.539614
0.601466
0.708297
0.921845
1.33406
2.01134
2.92894
3.96325
4.97294
5.87621
6.63965
7.25382
7.72576
8.0703
8.31615
8.50056
8.65887
8.80903
8.9403
9.01612
8.99225
8.83792
8.55787
8.1527
7.65208
7.08973
6.49945
5.90715
5.32529
4.75415
4.18897
3.62975
3.08711
2.58079
2.13193
1.75416
1.44502
1.19973
1.01191
0.873348
0.772628
0.700795
0.651416
0.615944
0.588197
0.564259
0.542082
0.520647
0.499685
0.479402
0.460034
0.441759
0.424684
0.408854
0.394209
0.380688
0.368232
0.356766
0.346272
0.336789
0.328409
0.321248
0.31543
0.311071
0.308294
0.307156
0.308071
0.311226
0.317978
0.330841
0.348497
0.385614
0.438946
0.588262
0.867849
1.13117
1.14315
2.25574
1.48057
0.926155
0.592077
0.411316
0.320449
0.257121
0.220114
0.194499
0.181219
6.87231
1.4819
0.63222
0.354887
0.249394
0.212734
0.203124
0.204519
0.21093
0.220116
0.230466
0.241621
0.25394
0.267751
0.283428
0.301343
0.321991
0.346
0.374141
0.407427
0.447061
0.493807
0.546712
0.613451
0.734596
0.997122
1.53988
2.46615
3.71919
5.09627
6.42661
7.61881
8.63558
9.4561
10.0784
10.5161
10.7942
10.9481
11.0234
11.0695
11.1224
11.1858
11.2254
11.1882
11.0332
10.7514
10.3364
9.81391
9.21572
8.57618
7.92474
7.27886
6.6407
6.00083
5.34927
4.68821
4.03651
3.42068
2.86314
2.37667
1.96587
1.62923
1.3556
1.13749
0.966843
0.838051
0.742596
0.675178
0.627293
0.591209
0.561634
0.535638
0.511626
0.489009
0.467829
0.448111
0.429887
0.413106
0.397682
0.383513
0.370494
0.358561
0.347718
0.338036
0.329633
0.322637
0.317169
0.313343
0.311215
0.311063
0.313126
0.318393
0.330081
0.345586
0.381268
0.431438
0.572954
0.832704
1.08223
1.0957
2.29915
1.42844
0.857551
0.553652
0.400988
0.317412
0.256532
0.219846
0.196236
0.183348
6.86341
1.48376
0.626715
0.352632
0.252493