/*--------------------------------*- C++ -*----------------------------------*\
| =========                 |                                                 |
| \\      /  F ield         | OpenFOAM: The Open Source CFD Toolbox           |
|  \\    /   O peration     | Version:  v2106                                 |
|   \\  /    A nd           | Website:  www.openfoam.com                      |
|    \\/     M anipulation  |                                                 |
\*---------------------------------------------------------------------------*/
FoamFile
{
    version     2.0;
    format      ascii;
    arch        "LSB;label=32;scalar=64";
    class       volScalarField;
    location    "1.9";
    object      p;
}
// * * * * * * * * * * * * * * * * * * * * * * * * * * * * * * * * * * * * * //

dimensions      [1 -1 -2 0 0 0 0];

internalField   nonuniform List<scalar> 
29678
(
14640.9
14493.7
14346.6
14199.4
14052.2
13904.9
13757.7
13610.4
13463.1
13315.8
13168.3
13020.6
12872.5
12723.6
12573.2
12420
12262.4
12096.2
11940.7
11788.4
11636.9
11486
11335.3
11184.8
11034.4
10884.1
10733.8
10583.7
10433.5
10283.5
10133.5
9983.48
9833.56
9683.69
9533.86
9384.08
9234.35
9084.67
8935.04
8785.48
8635.98
8486.55
8337.21
8187.96
8038.8
7889.74
7740.77
7591.87
7443.04
7294.28
7145.54
6996.74
6847.72
6698.13
6547.37
6394.34
6236.9
6084.08
5933.56
5783.99
5634.86
5486.03
5337.47
5189.14
5040.99
4892.89
4744.47
4595.18
4446.27
4297.37
4148.75
4000.06
3850.88
3701.77
3552.85
3404.04
3255.23
3106.38
2956.56
2806.93
2657.65
2508.09
2359.5
2210.88
2062.12
1913.24
1764.05
1614.84
1466.02
1316.78
1167.62
1018.44
868.759
718.879
568.964
420.073
269.999
120.022
20.3763
0.0944983
-0.273693
-0.326347
-0.537129
-0.685928
-0.870359
-1.04392
-1.22475
-1.40389
-1.58585
-1.76766
14639.9
14492.8
14345.6
14198.3
14051
13903.6
13756.2
13608.7
13461.1
13313.4
13165.6
13017.5
12869.1
12720.3
12571
12420
12265.9
12101.6
11945.2
11792
11639.9
11488.4
11337.4
11186.5
11035.9
10885.3
10734.9
10584.5
10434.2
10284
10133.8
9983.69
9833.62
9683.6
9533.64
9383.73
9233.88
9084.08
8934.33
8784.65
8635.04
8485.5
8336.05
8186.67
8037.38
7888.18
7739.05
7589.98
7440.96
7291.96
7142.95
6993.88
6844.66
6695.19
6545.18
6393.29
6237.84
6085.17
5934.34
5784.47
5635.11
5486.09
5337.36
5188.88
5040.62
4892.46
4744.24
4595.06
4446.03
4297.1
4148.49
3999.8
3850.66
3701.59
3552.71
3403.94
3255.21
3106.57
2956.94
2807.38
2658.12
2508.64
2359.99
2211.34
2062.59
1913.73
1764.64
1615.5
1466.68
1317.54
1168.44
1019.31
869.852
720.188
570.507
421.312
271.499
121.339
21.1824
-0.00938922
-0.23649
-0.324823
-0.515143
-0.676183
-0.858824
-1.036
-1.21754
-1.39836
-1.5812
-1.76401
14639
14491.8
14344.6
14197.3
14049.8
13902.3
13754.8
13607.1
13459.2
13311.2
13163
13014.4
12865.4
12715.6
12564.6
12411.9
12257.5
12101.6
11947.3
11794.3
11642.1
11490.4
11339.1
11188
11037.1
10886.4
10735.8
10585.2
10434.7
10284.3
10134
9983.72
9833.51
9683.35
9533.25
9383.22
9233.25
9083.34
8933.5
8783.73
8634.02
8484.4
8334.86
8185.4
8036.03
7886.73
7737.5
7588.32
7439.16
7290.01
7140.8
6991.48
6841.91
6691.93
6541.13
6389.53
6237.59
6086.22
5935.74
5785.9
5636.48
5487.37
5338.49
5189.79
5041.2
4892.63
4743.98
4595.14
4446.32
4297.54
4148.8
4000
3851.12
3702.25
3553.4
3404.54
3255.64
3106.66
2957.47
2808.29
2659.21
2510.14
2361.24
2212.39
2063.53
1914.62
1765.61
1616.57
1467.58
1318.49
1169.35
1020.17
870.868
721.486
572.129
422.859
273.452
123.887
24.4148
0.0333366
-0.147933
-0.312581
-0.496373
-0.669857
-0.85102
-1.0312
-1.21301
-1.39531
-1.57831
-1.76181
14638.2
14491
14343.7
14196.3
14048.8
13901.1
13753.4
13605.5
13457.5
13309.2
13160.7
13011.8
12862.5
12712.5
12561.8
12410.1
12257.4
12103.3
11949.5
11796.5
11644.1
11492.2
11340.7
11189.4
11038.3
10887.4
10736.5
10585.8
10435.2
10284.6
10134.1
9983.69
9833.33
9683.03
9532.81
9382.65
9232.56
9082.54
8932.59
8782.72
8632.93
8483.21
8333.58
8184.04
8034.57
7885.18
7735.84
7586.54
7437.26
7287.96
7138.61
6989.14
6839.48
6689.53
6539.27
6388.6
6237.47
6086.54
5936.15
5786.26
5636.74
5487.51
5338.53
5189.73
5041.05
4892.43
4743.8
4595.02
4446.21
4297.43
4148.68
3999.91
3851.07
3702.22
3553.39
3404.58
3255.76
3106.88
2957.85
2808.77
2659.73
2510.75
2361.87
2213.03
2064.18
1915.29
1766.35
1617.37
1468.38
1319.35
1170.29
1021.17
871.99
722.744
573.485
424.142
274.75
124.8
24.6726
0.0625587
-0.129344
-0.300762
-0.483913
-0.661979
-0.843891
-1.02559
-1.20817
-1.39124
-1.5748
-1.75877
14637.4
14490.2
14342.8
14195.4
14047.8
13900.1
13752.2
13604.2
13456
13307.5
13158.7
13009.6
12860.1
12710
12559.3
12407.8
12255.5
12102.5
11949.7
11797.2
11645.1
11493.3
11341.7
11190.3
11039.1
10888.1
10737.1
10586.2
10435.5
10284.8
10134.1
9983.55
9833.06
9682.63
9532.27
9381.99
9231.78
9081.65
8931.6
8781.63
8631.74
8481.94
8332.22
8182.59
8033.04
7883.56
7734.13
7584.74
7435.37
7285.98
7136.55
6987.03
6837.37
6687.5
6537.4
6387.04
6236.53
6086.17
5936.11
5786.41
5636.99
5487.82
5338.84
5189.99
5041.24
4892.53
4743.82
4595.08
4446.35
4297.63
4148.91
4000.18
3851.42
3702.66
3553.88
3405.09
3256.26
3107.38
2958.46
2809.53
2660.62
2511.73
2362.87
2214.01
2065.15
1916.26
1767.33
1618.37
1469.38
1320.36
1171.31
1022.24
873.139
724.007
574.925
425.786
276.777
127.305
26.2178
0.0746898
-0.114156
-0.290639
-0.475213
-0.655183
-0.838237
-1.02093
-1.20424
-1.38791
-1.57191
-1.75621
14636.7
14489.5
14342.1
14194.6
14046.9
13899.1
13751.2
13603
13454.6
13306
13157.1
13007.9
12858.2
12708.1
12557.5
12406.2
12254.5
12102.4
11950.1
11798
11646
11494.2
11342.7
11191.2
11039.9
10888.7
10737.6
10586.6
10435.7
10284.8
10134.1
9983.35
9832.72
9682.15
9531.66
9381.25
9230.92
9080.68
8930.52
8780.44
8630.46
8480.57
8330.77
8181.06
8031.43
7881.87
7732.37
7582.91
7433.47
7284.03
7134.56
6985.03
6835.4
6685.64
6535.75
6385.73
6235.66
6085.65
5935.85
5786.28
5636.92
5487.76
5338.76
5189.89
5041.12
4892.4
4743.7
4595
4446.3
4297.61
4148.91
4000.21
3851.5
3702.78
3554.04
3405.3
3256.53
3107.73
2958.9
2810.04
2661.18
2512.33
2363.5
2214.68
2065.85
1917
1768.12
1619.22
1470.29
1321.34
1172.35
1023.35
874.328
725.287
576.314
427.242
278.439
129.287
27.4251
0.0827693
-0.109705
-0.282729
-0.469386
-0.649379
-0.833651
-1.0169
-1.2008
-1.38493
-1.56931
-1.75389
14636.1
14488.9
14341.5
14193.9
14046.2
13898.3
13750.3
13602
13453.5
13304.8
13155.8
13006.5
12856.8
12706.7
12556.1
12405.1
12253.7
12102.1
11950.2
11798.4
11646.6
11494.9
11343.3
11191.8
11040.5
10889.2
10738
10586.8
10435.8
10284.8
10133.9
9983.04
9832.26
9681.56
9530.94
9380.41
9229.96
9079.59
8929.33
8779.15
8629.08
8479.1
8329.22
8179.43
8029.73
7880.1
7730.54
7581.04
7431.56
7282.09
7132.62
6983.11
6833.54
6683.9
6534.19
6384.42
6234.63
6084.91
5935.32
5785.9
5636.67
5487.59
5338.64
5189.8
5041.04
4892.33
4743.65
4594.99
4446.33
4297.69
4149.04
4000.39
3851.74
3703.07
3554.39
3405.69
3256.97
3108.22
2959.46
2810.68
2661.89
2513.11
2364.32
2215.53
2066.72
1917.89
1769.04
1620.16
1471.26
1322.34
1173.4
1024.44
875.484
726.508
577.627
428.651
280.066
131.232
28.4755
0.0856855
-0.104657
-0.276513
-0.464726
-0.644527
-0.829987
-1.01354
-1.19794
-1.38246
-1.56715
-1.75196
14635.7
14488.4
14341
14193.4
14045.7
13897.7
13749.6
13601.2
13452.7
13303.9
13154.8
13005.4
12855.7
12705.6
12555.1
12404.3
12253.2
12101.8
11950.3
11798.6
11647
11495.4
11343.8
11192.3
11040.9
10889.5
10738.2
10587
10435.8
10284.7
10133.6
9982.63
9831.72
9680.88
9530.13
9379.46
9228.89
9078.41
8928.03
8777.75
8627.58
8477.52
8327.56
8177.7
8027.93
7878.26
7728.65
7579.11
7429.61
7280.14
7130.68
6981.22
6831.73
6682.21
6532.66
6383.09
6233.53
6084.04
5934.64
5785.39
5636.26
5487.26
5338.37
5189.58
5040.85
4892.18
4743.53
4594.91
4446.3
4297.7
4149.11
4000.51
3851.9
3703.29
3554.66
3406.01
3257.35
3108.67
2959.96
2811.25
2662.52
2513.79
2365.04
2216.29
2067.52
1918.73
1769.92
1621.08
1472.23
1323.35
1174.46
1025.55
876.644
727.714
578.884
429.943
281.427
132.656
29.1017
0.0949817
-0.0988432
-0.271266
-0.460404
-0.640521
-0.826977
-1.01072
-1.19561
-1.38044
-1.56539
-1.75042
14635.4
14488.1
14340.7
14193.1
14045.2
13897.2
13749.1
13600.7
13452
13303.2
13154
13004.6
12854.9
12704.8
12554.5
12403.8
12252.8
12101.6
11950.3
11798.8
11647.3
11495.7
11344.2
11192.7
11041.2
10889.8
10738.4
10587
10435.7
10284.4
10133.3
9982.13
9831.07
9680.09
9529.2
9378.4
9227.69
9077.09
8926.6
8776.22
8625.96
8475.81
8325.78
8175.85
8026.03
7876.31
7726.68
7577.12
7427.62
7278.16
7128.73
6979.32
6829.92
6680.52
6531.11
6381.72
6232.36
6083.05
5933.83
5784.72
5635.72
5486.81
5338
5189.27
5040.6
4891.97
4743.38
4594.81
4446.26
4297.71
4149.17
4000.63
3852.08
3703.52
3554.95
3406.36
3257.75
3109.13
2960.49
2811.83
2663.16
2514.48
2365.78
2217.07
2068.34
1919.59
1770.82
1622.03
1473.21
1324.38
1175.52
1026.65
877.782
728.879
580.063
431.11
282.584
133.665
29.448
0.105784
-0.0930597
-0.266717
-0.456456
-0.637281
-0.824465
-1.0084
-1.19375
-1.37884
-1.56401
-1.74922
14635.3
14488
14340.5
14192.9
14045
13897
13748.7
13600.3
13451.6
13302.7
13153.5
13004.1
12854.3
12704.3
12554
12403.5
12252.6
12101.6
11950.3
11799
11647.5
11496
11344.5
11193
11041.4
10889.9
10738.4
10586.9
10435.5
10284.1
10132.8
9981.51
9830.31
9679.18
9528.14
9377.2
9226.37
9075.65
8925.04
8774.56
8624.2
8473.97
8323.86
8173.88
8024.01
7874.26
7724.6
7575.04
7425.55
7276.12
7126.74
6977.4
6828.08
6678.79
6529.53
6380.29
6231.1
6081.97
5932.91
5783.94
5635.06
5486.26
5337.54
5188.88
5040.28
4891.72
4743.19
4594.68
4446.19
4297.71
4149.22
4000.74
3852.25
3703.75
3555.23
3406.7
3258.16
3109.6
2961.01
2812.42
2663.8
2515.17
2366.52
2217.86
2069.17
1920.47
1771.74
1622.98
1474.21
1325.41
1176.59
1027.76
878.915
730.025
581.21
432.214
283.618
134.443
29.6487
0.112473
-0.0872735
-0.263176
-0.453071
-0.634753
-0.822368
-1.00655
-1.19229
-1.37759
-1.56295
-1.74833
14635.3
14488
14340.5
14192.8
14045
13896.9
13748.6
13600.1
13451.4
13302.4
13153.2
13003.8
12854.1
12704.1
12553.8
12403.3
12252.6
12101.6
11950.5
11799.2
11647.8
11496.3
11344.8
11193.2
11041.6
10890
10738.4
10586.8
10435.2
10283.7
10132.2
9980.78
9829.43
9678.15
9526.96
9375.87
9224.9
9074.05
8923.32
8772.73
8622.28
8471.97
8321.8
8171.76
8021.86
7872.08
7722.41
7572.85
7423.38
7273.99
7124.67
6975.41
6826.19
6677.02
6527.89
6378.8
6229.77
6080.79
5931.89
5783.06
5634.3
5485.61
5336.99
5188.42
5039.9
4891.42
4742.96
4594.52
4446.1
4297.68
4149.26
4000.84
3852.41
3703.97
3555.52
3407.05
3258.56
3110.06
2961.54
2813
2664.44
2515.86
2367.27
2218.65
2070.01
1921.35
1772.66
1623.95
1475.22
1326.46
1177.68
1028.87
880.052
731.171
582.348
433.304
284.632
135.241
29.9207
0.115947
-0.0822277
-0.260596
-0.450183
-0.63301
-0.820623
-1.00513
-1.19116
-1.37664
-1.56215
-1.74768
14635.5
14488.2
14340.7
14193
14045.1
13897
13748.7
13600.1
13451.4
13302.4
13153.2
13003.7
12854
12704
12553.8
12403.3
12252.6
12101.7
11950.7
11799.4
11648
11496.6
11345
11193.4
11041.7
10890
10738.3
10586.6
10434.9
10283.2
10131.5
9979.94
9828.42
9676.98
9525.63
9374.39
9223.27
9072.29
8921.44
8770.74
8620.19
8469.8
8319.56
8169.48
8019.54
7869.74
7720.08
7570.54
7421.1
7271.76
7122.51
6973.33
6824.22
6675.17
6526.17
6377.23
6228.35
6079.53
5930.77
5782.08
5633.45
5484.88
5336.36
5187.9
5039.47
4891.07
4742.69
4594.33
4445.98
4297.63
4149.28
4000.93
3852.56
3704.19
3555.8
3407.39
3258.97
3110.53
2962.07
2813.59
2665.08
2516.56
2368.02
2219.45
2070.86
1922.24
1773.6
1624.93
1476.24
1327.52
1178.78
1030
881.203
732.335
583.509
434.434
285.696
136.186
30.3445
0.117859
-0.0781961
-0.258827
-0.447926
-0.631785
-0.819209
-1.00408
-1.1903
-1.37592
-1.56158
-1.74723
14635.8
14488.5
14341
14193.3
14045.4
13897.3
13748.9
13600.4
13451.6
13302.6
13153.4
13003.9
12854.2
12704.2
12554
12403.5
12252.9
12102
11950.9
11799.7
11648.3
11496.8
11345.2
11193.5
11041.8
10890
10738.1
10586.3
10434.4
10282.6
10130.7
9978.98
9827.28
9675.66
9524.15
9372.74
9221.47
9070.34
8919.36
8768.55
8617.9
8467.43
8317.13
8167
8017.04
7867.24
7717.59
7568.07
7418.68
7269.41
7120.24
6971.16
6822.16
6673.23
6524.37
6375.58
6226.85
6078.18
5929.57
5781.02
5632.52
5484.07
5335.67
5187.31
5038.98
4890.67
4742.38
4594.1
4445.83
4297.56
4149.28
4001
3852.71
3704.4
3556.08
3407.74
3259.38
3111
2962.6
2814.18
2665.73
2517.26
2368.77
2220.26
2071.72
1923.15
1774.55
1625.93
1477.28
1328.6
1179.89
1031.15
882.382
733.538
584.722
435.648
286.886
137.327
30.8877
0.118916
-0.0751734
-0.257726
-0.446245
-0.631036
-0.818058
-1.00335
-1.18965
-1.37541
-1.56117
-1.74692
14636.4
14489.1
14341.5
14193.8
14045.9
13897.7
13749.4
13600.8
13452
13303
13153.7
13004.3
12854.5
12704.6
12554.4
12403.9
12253.3
12102.4
11951.3
11800.1
11648.7
11497.1
11345.5
11193.7
11041.8
10889.9
10737.9
10585.9
10433.9
10281.8
10129.8
9977.89
9826
9674.19
9522.49
9370.91
9219.47
9068.19
8917.07
8766.14
8615.39
8464.84
8314.48
8164.32
8014.34
7864.54
7714.91
7565.44
7416.11
7266.91
7117.83
6968.86
6819.98
6671.19
6522.48
6373.83
6225.26
6076.74
5928.28
5779.87
5631.51
5483.19
5334.92
5186.67
5038.44
4890.24
4742.04
4593.85
4445.66
4297.47
4149.28
4001.07
3852.85
3704.61
3556.35
3408.08
3259.79
3111.47
2963.13
2814.77
2666.38
2517.97
2369.54
2221.07
2072.58
1924.07
1775.52
1626.94
1478.34
1329.7
1181.03
1032.33
883.6
734.795
586.013
436.986
288.227
138.707
31.558
0.119581
-0.0731609
-0.257164
-0.445103
-0.630541
-0.817289
-1.00288
-1.18919
-1.37505
-1.56089
-1.74672
14637.1
14489.8
14342.2
14194.5
14046.5
13898.4
13750
13601.4
13452.6
13303.6
13154.3
13004.8
12855.1
12705.1
12554.9
12404.5
12253.8
12102.9
11951.8
11800.5
11649.1
11497.5
11345.7
11193.9
11041.9
10889.8
10737.7
10585.5
10433.3
10281
10128.8
9976.66
9824.56
9672.55
9520.64
9368.87
9217.25
9065.8
8914.54
8763.48
8612.63
8462
8311.59
8161.39
8011.4
7861.62
7712.02
7562.6
7413.35
7264.24
7115.27
6966.41
6817.67
6669.03
6520.47
6371.99
6223.57
6075.21
5926.91
5778.65
5630.43
5482.25
5334.1
5185.97
5037.86
4889.76
4741.67
4593.57
4445.48
4297.37
4149.25
4001.12
3852.98
3704.81
3556.63
3408.42
3260.2
3111.95
2963.67
2815.37
2667.04
2518.69
2370.31
2221.9
2073.47
1925
1776.5
1627.97
1479.41
1330.82
1182.2
1033.54
884.86
736.111
587.385
438.445
289.73
140.362
32.415
0.119438
-0.0721975
-0.257098
-0.444468
-0.630291
-0.81678
-1.00265
-1.18887
-1.37482
-1.56071
-1.7466
14638
14490.6
14343.1
14195.4
14047.4
13899.2
13750.9
13602.3
13453.4
13304.4
13155.1
13005.6
12855.9
12705.9
12555.6
12405.2
12254.5
12103.6
11952.4
11801.1
11649.6
11497.9
11346
11194
11041.9
10889.7
10737.4
10585
10432.6
10280.1
10127.7
9975.29
9822.95
9670.71
9518.58
9366.59
9214.77
9063.15
8911.73
8760.54
8609.58
8458.87
8308.41
8158.18
8008.2
7858.44
7708.89
7559.54
7410.38
7261.38
7112.53
6963.82
6815.23
6666.74
6518.35
6370.03
6221.78
6073.59
5925.45
5777.35
5629.29
5481.25
5333.24
5185.24
5037.25
4889.26
4741.27
4593.28
4445.27
4297.25
4149.22
4001.17
3853.1
3705.01
3556.9
3408.77
3260.61
3112.42
2964.21
2815.97
2667.71
2519.42
2371.09
2222.74
2074.36
1925.95
1777.5
1629.02
1480.51
1331.97
1183.39
1034.79
886.159
737.477
588.823
440.003
291.386
142.281
33.4869
0.117653
-0.0722421
-0.257548
-0.444291
-0.630272
-0.816544
-1.00253
-1.18866
-1.37467
-1.5606
-1.74654
14639
14491.7
14344.2
14196.4
14048.5
13900.3
13751.9
13603.3
13454.5
13305.4
13156.1
13006.6
12856.8
12706.8
12556.6
12406.1
12255.3
12104.4
11953.2
11801.8
11650.2
11498.4
11346.4
11194.3
11042
10889.6
10737
10584.4
10431.8
10279.1
10126.4
9973.76
9821.16
9668.66
9516.28
9364.06
9212.02
9060.2
8908.61
8757.28
8606.21
8455.42
8304.9
8154.66
8004.69
7854.97
7705.49
7556.23
7407.17
7258.3
7109.6
6961.04
6812.62
6664.31
6516.1
6367.96
6219.9
6071.88
5923.92
5775.98
5628.08
5480.2
5332.32
5184.46
5036.59
4888.73
4740.85
4592.96
4445.05
4297.13
4149.18
4001.22
3853.23
3705.22
3557.18
3409.11
3261.02
3112.91
2964.76
2816.59
2668.38
2520.15
2371.89
2223.59
2075.27
1926.91
1778.52
1630.09
1481.63
1333.13
1184.61
1036.05
887.483
738.873
590.301
441.62
293.143
144.374
34.73
0.114255
-0.0730171
-0.258356
-0.444444
-0.630418
-0.816475
-1.00252
-1.18851
-1.3746
-1.56053
-1.74652
14640.3
14493
14345.5
14197.7
14049.7
13901.5
13753.2
13604.5
13455.7
13306.6
13157.3
13007.8
12858
12707.9
12557.7
12407.1
12256.4
12105.3
11954.1
11802.6
11650.9
11499
11346.8
11194.5
11042.1
10889.4
10736.7
10583.8
10430.9
10278
10125
9972.05
9819.16
9666.37
9513.71
9361.22
9208.94
9056.9
8905.13
8753.64
8602.46
8451.59
8301.03
8150.78
8000.84
7851.17
7701.78
7552.63
7403.71
7254.98
7106.45
6958.08
6809.85
6661.73
6513.72
6365.78
6217.9
6070.08
5922.3
5774.55
5626.81
5479.09
5331.37
5183.65
5035.91
4888.17
4740.41
4592.62
4444.82
4296.99
4149.14
4001.26
3853.35
3705.42
3557.45
3409.46
3261.44
3113.39
2965.32
2817.21
2669.07
2520.9
2372.7
2224.46
2076.19
1927.89
1779.55
1631.17
1482.76
1334.32
1185.84
1037.34
888.819
740.275
591.778
443.229
294.902
146.472
36.0188
0.11009
-0.0740396
-0.259248
-0.444751
-0.630657
-0.816473
-1.00257
-1.18842
-1.37457
-1.56049
-1.74652
14641.8
14494.4
14346.9
14199.2
14051.2
13903
13754.6
13606
13457.1
13308
13158.7
13009.2
12859.3
12709.3
12559
12408.4
12257.6
12106.5
11955.1
11803.5
11651.7
11499.6
11347.4
11194.9
11042.2
10889.3
10736.3
10583.2
10430
10276.7
10123.4
9970.14
9816.92
9663.81
9510.83
9358.05
9205.5
9053.22
8901.24
8749.59
8598.28
8447.33
8296.74
8146.49
7996.59
7847.01
7697.72
7548.71
7399.95
7251.41
7103.07
6954.91
6806.89
6658.99
6511.19
6363.47
6215.81
6068.19
5920.61
5773.05
5625.49
5477.94
5330.38
5182.8
5035.21
4887.59
4739.95
4592.28
4444.58
4296.85
4149.09
4001.3
3853.48
3705.62
3557.73
3409.82
3261.87
3113.89
2965.88
2817.84
2669.76
2521.66
2373.52
2225.34
2077.13
1928.88
1780.6
1632.28
1483.91
1335.52
1187.09
1038.62
890.15
741.655
593.212
444.756
296.538
148.358
37.171
0.106532
-0.0746001
-0.260105
-0.444773
-0.630963
-0.81642
-1.00274
-1.18825
-1.37456
-1.56045
-1.74654
14643.4
14496.1
14348.6
14200.8
14052.8
13904.6
13756.2
13607.6
13458.8
13309.7
13160.3
13010.8
12860.9
12710.8
12560.5
12409.9
12259
12107.8
11956.4
11804.6
11652.7
11500.4
11348
11195.3
11042.3
10889.2
10735.9
10582.5
10428.9
10275.3
10121.7
9968.02
9814.42
9660.94
9507.61
9354.49
9201.63
9049.08
8896.87
8745.04
8593.6
8442.57
8291.96
8141.74
7991.9
7842.42
7693.28
7544.43
7395.86
7247.54
7099.43
6951.51
6803.73
6656.08
6508.52
6361.03
6213.61
6066.21
5918.85
5771.49
5624.12
5476.75
5329.35
5181.94
5034.49
4887
4739.49
4591.93
4444.34
4296.71
4149.05
4001.34
3853.6
3705.83
3558.02
3410.18
3262.3
3114.39
2966.45
2818.48
2670.47
2522.42
2374.35
2226.23
2078.08
1929.89
1781.67
1633.4
1485.08
1336.73
1188.34
1039.91
891.466
742.996
594.567
446.139
297.94
149.833
38.0136
0.104934
-0.0744301
-0.26057
-0.444441
-0.631235
-0.816185
-1.00285
-1.18817
-1.37458
-1.5604
-1.74656
14645.3
14497.9
14350.4
14202.7
14054.7
13906.5
13758.1
13609.5
13460.6
13311.5
13162.2
13012.6
12862.7
12712.6
12562.2
12411.5
12260.6
12109.3
11957.8
11805.9
11653.8
11501.4
11348.7
11195.7
11042.5
10889.1
10735.5
10581.7
10427.8
10273.8
10119.7
9965.65
9811.63
9657.72
9503.99
9350.48
9197.27
9044.41
8891.95
8739.92
8588.35
8437.25
8286.62
8136.45
7986.7
7837.37
7688.39
7539.75
7391.42
7243.35
7095.51
6947.86
6800.36
6652.98
6505.69
6358.47
6211.3
6064.15
5917.01
5769.87
5622.71
5475.52
5328.31
5181.05
5033.75
4886.41
4739.02
4591.58
4444.1
4296.58
4149.01
4001.39
3853.74
3706.05
3558.31
3410.55
3262.74
3114.9
2967.03
2819.12
2671.18
2523.2
2375.19
2227.14
2079.05
1930.92
1782.75
1634.53
1486.27
1337.96
1189.61
1041.21
892.769
744.293
595.83
447.351
299.048
150.791
38.4328
0.105903
-0.0735008
-0.260345
-0.443722
-0.631636
-0.815709
-1.003
-1.18809
-1.3746
-1.56037
-1.74655
14647.3
14500
14352.5
14204.7
14056.7
13908.5
13760.2
13611.5
13462.7
13313.6
13164.2
13014.6
12864.8
12714.6
12564.2
12413.4
12262.4
12111
11959.3
11807.4
11655.1
11502.4
11349.5
11196.3
11042.8
10889.1
10735.1
10580.9
10426.6
10272.1
10117.6
9963
9808.5
9654.1
9499.9
9345.95
9192.34
9039.13
8886.38
8734.13
8582.42
8431.26
8280.64
8130.54
7980.93
7831.77
7683.02
7534.63
7386.58
7238.82
7091.29
6943.95
6796.77
6649.7
6502.71
6355.78
6208.88
6062
5915.11
5768.2
5621.26
5474.27
5327.24
5180.16
5033.01
4885.81
4738.56
4591.24
4443.87
4296.45
4148.97
4001.45
3853.88
3706.27
3558.62
3410.92
3263.19
3115.42
2967.62
2819.78
2671.9
2523.99
2376.04
2228.06
2080.03
1931.97
1783.85
1635.69
1487.48
1339.22
1190.89
1042.51
894.066
745.56
597.021
448.416
299.891
151.296
38.4334
0.109233
-0.0718076
-0.259585
-0.443177
-0.631399
-0.815418
-1.00299
-1.18801
-1.3746
-1.56036
-1.74653
14649.5
14502.2
14354.7
14206.9
14059
13910.8
13762.4
13613.8
13465
13315.9
13166.5
13016.9
12867
12716.8
12566.3
12415.5
12264.4
12113
11961.2
11809
11656.5
11503.7
11350.5
11197
11043.2
10889
10734.7
10580
10425.2
10270.2
10115.2
9960.04
9804.97
9650.01
9495.26
9340.81
9186.73
9033.12
8880.04
8727.56
8575.71
8424.49
8273.91
8123.92
7974.49
7825.56
7677.09
7529.02
7381.31
7233.9
7086.74
6939.76
6792.93
6646.21
6499.56
6352.95
6206.37
6059.77
5913.15
5766.49
5619.78
5473.01
5326.17
5179.26
5032.28
4885.22
4738.1
4590.91
4443.65
4296.33
4148.95
4001.52
3854.03
3706.5
3558.92
3411.3
3263.64
3115.95
2968.21
2820.44
2672.63
2524.79
2376.91
2228.99
2081.03
1933.03
1784.98
1636.88
1488.72
1340.5
1192.21
1043.84
895.386
746.834
598.195
449.416
300.584
151.542
38.1592
0.114715
-0.0700307
-0.258202
-0.442548
-0.631104
-0.815074
-1.00293
-1.18794
-1.37461
-1.56039
-1.74653
14652
14504.7
14357.1
14209.4
14061.4
13913.3
13764.9
13616.3
13467.5
13318.4
13169
13019.4
12869.5
12719.3
12568.8
12417.9
12266.7
12115.1
11963.2
11810.9
11658.2
11505.1
11351.6
11197.8
11043.6
10889.1
10734.2
10579.1
10423.7
10268.2
10112.5
9956.71
9800.99
9645.38
9489.99
9334.93
9180.31
9026.23
8872.78
8720.04
8568.04
8416.8
8266.29
8116.48
7967.29
7818.67
7670.52
7522.84
7375.55
7228.57
7081.83
6935.27
6788.85
6642.52
6496.25
6350
6203.75
6057.47
5911.15
5764.76
5618.29
5471.74
5325.1
5178.38
5031.56
4884.66
4737.67
4590.59
4443.45
4296.23
4148.95
4001.6
3854.2
3706.74
3559.24
3411.69
3264.11
3116.48
2968.81
2821.11
2673.37
2525.59
2377.78
2229.93
2082.04
1934.11
1786.12
1638.09
1489.99
1341.82
1193.57
1045.22
896.761
748.163
599.428
450.46
301.301
151.788
37.8265
0.119655
-0.0675339
-0.256651
-0.442012
-0.630789
-0.814751
-1.00292
-1.18793
-1.37469
-1.56043
-1.74655
14654.6
14507.3
14359.8
14212
14064.1
13916
13767.6
13619
13470.2
13321.1
13171.8
13022.2
12872.3
12722
12571.5
12420.6
12269.3
12117.6
11965.5
11813
11660.1
11506.7
11352.9
11198.7
11044.1
10889.1
10733.8
10578.1
10422.1
10265.9
10109.5
9952.96
9796.46
9640.08
9483.92
9328.14
9172.88
9018.25
8864.37
8711.34
8559.22
8407.99
8257.61
8108.04
7959.19
7810.97
7663.31
7516.11
7369.32
7222.84
7076.58
6930.49
6784.52
6638.62
6492.77
6346.93
6201.05
6055.11
5909.11
5763
5616.8
5470.48
5324.06
5177.52
5030.87
4884.12
4737.26
4590.3
4443.27
4296.15
4148.96
4001.7
3854.37
3707
3559.57
3412.09
3264.57
3117.01
2969.41
2821.78
2674.11
2526.4
2378.66
2230.88
2083.06
1935.2
1787.29
1639.32
1491.29
1343.18
1194.98
1046.67
898.229
749.605
600.805
451.688
302.252
152.37
37.7062
0.124605
-0.0663513
-0.255195
-0.441721
-0.630611
-0.814497
-1.00295
-1.18806
-1.37484
-1.56052
-1.7466
14657.4
14510.1
14362.6
14214.9
14067
13918.8
13770.5
13622
13473.2
13324.1
13174.8
13025.2
12875.3
12725.1
12574.5
12423.5
12272.1
12120.3
11968.1
11815.4
11662.2
11508.6
11354.4
11199.8
11044.8
10889.2
10733.3
10577
10420.3
10263.3
10106.1
9948.68
9791.24
9633.91
9476.81
9320.15
9164.17
9008.98
8854.66
8701.32
8549.03
8397.8
8247.6
8098.35
7949.94
7802.24
7655.16
7508.6
7362.44
7216.57
7070.91
6925.4
6779.97
6634.59
6489.21
6343.79
6198.29
6052.71
5907.04
5761.24
5615.31
5469.25
5323.04
5176.69
5030.21
4883.61
4736.88
4590.04
4443.11
4296.09
4148.99
4001.81
3854.56
3707.26
3559.9
3412.49
3265.04
3117.55
2970.02
2822.45
2674.85
2527.21
2379.55
2231.84
2084.1
1936.32
1788.48
1640.6
1492.64
1344.61
1196.48
1048.22
899.825
751.214
602.403
453.214
303.608
153.664
37.9787
0.12753
-0.0656129
-0.254538
-0.441608
-0.630367
-0.815178
-1.00329
-1.18843
-1.3751
-1.5607
-1.74668
14660.4
14513.1
14365.6
14217.9
14070
13921.9
13773.7
13625.1
13476.4
13327.4
13178.1
13028.5
12878.6
12728.4
12577.7
12426.7
12275.3
12123.3
11970.9
11818
11664.6
11510.7
11356.2
11201.1
11045.5
10889.4
10732.8
10575.8
10418.3
10260.4
10102.1
9943.66
9785.04
9626.56
9468.42
9310.81
9153.93
8997.98
8843.12
8689.46
8537.02
8385.87
8235.96
8087.18
7939.34
7792.32
7645.98
7500.18
7354.76
7209.63
7064.72
6919.91
6775.14
6630.35
6485.5
6340.57
6195.52
6050.34
5905.01
5759.53
5613.88
5468.06
5322.07
5175.92
5029.61
4883.15
4736.55
4589.83
4443
4296.07
4149.04
4001.94
3854.77
3707.53
3560.24
3412.9
3265.51
3118.08
2970.62
2823.12
2675.59
2528.03
2380.44
2232.81
2085.15
1937.45
1789.7
1641.91
1494.04
1346.1
1198.06
1049.89
901.575
753.029
604.276
455.118
305.497
155.589
38.746
0.128279
-0.0657491
-0.254933
-0.442215
-0.631015
-0.816124
-1.00387
-1.18908
-1.37549
-1.561
-1.74678
14663.6
14516.3
14368.8
14221.1
14073.3
13925.2
13777
13628.5
13479.8
13330.9
13181.6
13032.1
12882.2
12732
12581.3
12430.3
12278.7
12126.7
11974.2
11821
11667.4
11513.1
11358.1
11202.6
11046.5
10889.7
10732.4
10574.4
10416
10257
10097.5
9937.64
9777.72
9617.87
9458.37
9299.52
9141.56
8984.73
8829.29
8675.35
8522.93
8372.04
8222.6
8074.44
7927.35
7781.16
7635.71
7490.79
7346.26
7202.02
7057.94
6913.93
6769.91
6625.81
6481.58
6337.22
6192.68
6047.95
5903.04
5757.91
5612.56
5466.99
5321.21
5175.23
5029.08
4882.76
4736.28
4589.66
4442.92
4296.08
4149.13
4002.1
3854.99
3707.82
3560.59
3413.31
3265.98
3118.62
2971.22
2823.79
2676.33
2528.84
2381.33
2233.78
2086.21
1938.6
1790.95
1643.25
1495.49
1347.66
1199.73
1051.68
903.494
755.07
606.456
457.439
307.935
158.183
40.071
0.126695
-0.0674879
-0.256676
-0.443672
-0.632184
-0.817538
-1.00474
-1.18999
-1.37602
-1.56141
-1.74693
14667
14519.6
14372.2
14224.5
14076.7
13928.7
13780.6
13632.1
13483.5
13334.6
13185.4
13035.9
12886.1
12735.9
12585.3
12434.2
12282.6
12130.4
11977.7
11824.4
11670.4
11515.8
11360.4
11204.3
11047.5
10890
10731.8
10572.9
10413.2
10252.8
10091.9
9930.53
9768.93
9607.34
9446.18
9285.86
9126.72
8969.05
8813.08
8658.94
8506.67
8356.21
8207.44
8060.11
7913.95
7768.74
7624.28
7480.38
7336.88
7193.64
7050.53
6907.43
6764.27
6620.96
6477.46
6333.74
6189.77
6045.57
5901.1
5756.36
5611.33
5466.04
5320.48
5174.68
5028.67
4882.47
4736.08
4589.55
4442.9
4296.12
4149.24
4002.27
3855.23
3708.11
3560.94
3413.72
3266.45
3119.15
2971.82
2824.46
2677.07
2529.66
2382.22
2234.76
2087.28
1939.76
1792.22
1644.63
1496.99
1349.28
1201.49
1053.59
905.58
757.338
608.943
460.178
310.945
161.545
41.9734
0.122204
-0.0707747
-0.259468
-0.446205
-0.633964
-0.819449
-1.00594
-1.19117
-1.37674
-1.56192
-1.74713
14670.5
14523.1
14375.7
14228.1
14080.4
13932.4
13784.3
13636
13487.4
13338.6
13189.5
13040.1
12890.3
12740.1
12589.5
12438.4
12286.8
12134.6
11981.7
11828.2
11673.9
11518.8
11363
11206.3
11048.8
10890.5
10731.2
10571
10409.9
10248
10085.3
9922.04
9758.41
9594.86
9431.81
9269.79
9109.25
8950.61
8794.12
8639.93
8488.02
8338.27
8190.48
8044.23
7899.22
7755.08
7611.73
7468.95
7326.58
7184.47
7042.47
6900.45
6758.29
6615.89
6473.2
6330.19
6186.84
6043.18
5899.21
5754.89
5610.22
5465.21
5319.88
5174.27
5028.4
4882.3
4736
4589.53
4442.93
4296.21
4149.39
4002.48
3855.48
3708.42
3561.3
3414.13
3266.92
3119.68
2972.41
2825.12
2677.8
2530.46
2383.11
2235.74
2088.35
1940.94
1793.5
1646.03
1498.52
1350.96
1203.34
1055.62
907.817
759.807
611.706
463.284
314.488
165.597
44.4109
0.115397
-0.0752953
-0.263241
-0.449583
-0.636356
-0.821795
-1.00751
-1.19257
-1.37765
-1.56253
-1.74739
14674.1
14526.8
14379.4
14231.8
14084.1
13936.3
13788.2
13640
13491.5
13342.8
13193.8
13044.5
12894.8
12744.7
12594.2
12443.1
12291.4
12139.1
11986.1
11832.4
11677.8
11522.3
11365.9
11208.6
11050.3
10890.9
10730.3
10568.6
10405.9
10242.3
10077.7
9912.32
9746.35
9580.38
9415.03
9250.96
9088.81
8929.07
8772.11
8618.06
8466.82
8318.21
8171.87
8027.06
7883.22
7740.37
7598.21
7456.61
7315.45
7174.57
7033.79
6892.97
6751.94
6610.6
6468.86
6326.65
6183.99
6040.93
5897.48
5753.59
5609.26
5464.52
5319.41
5173.97
5028.24
4882.24
4736.02
4589.61
4443.05
4296.37
4149.58
4002.71
3855.76
3708.74
3561.66
3414.55
3267.39
3120.2
2973
2825.76
2678.52
2531.26
2383.99
2236.71
2089.41
1942.11
1794.79
1647.45
1500.09
1352.69
1205.24
1057.73
910.171
762.433
614.695
466.664
318.438
170.198
47.2774
0.107439
-0.0805257
-0.268021
-0.45361
-0.639363
-0.824517
-1.00946
-1.19416
-1.37875
-1.56324
-1.74769
14677.9
14530.6
14383.2
14235.7
14088.1
13940.3
13792.3
13644.2
13495.8
13347.2
13198.4
13049.2
12899.6
12749.7
12599.2
12448.2
12296.5
12144.2
11991
11837
11682.1
11526.2
11369.2
11211.2
11051.9
10891.1
10728.9
10565.7
10401.4
10236
10069.4
9901.39
9732.65
9563.85
9395.8
9229.36
9065.31
8904.33
8746.87
8593.12
8442.91
8296
8151.92
8009.19
7866.84
7725.16
7584.16
7443.74
7303.79
7164.16
7024.66
6885.1
6745.31
6605.13
6464.44
6323.15
6181.25
6038.87
5896.01
5752.58
5608.57
5464.06
5319.12
5173.8
5028.17
4882.27
4736.12
4589.77
4443.26
4296.61
4149.84
4002.98
3856.05
3709.07
3562.03
3414.96
3267.85
3120.71
2973.56
2826.4
2679.22
2532.04
2384.85
2237.66
2090.47
1943.27
1796.07
1648.87
1501.65
1354.42
1207.17
1059.88
912.606
765.155
617.846
470.237
322.73
175.019
50.4059
0.0998292
-0.0858763
-0.274332
-0.457911
-0.642941
-0.827518
-1.01168
-1.19592
-1.37997
-1.56402
-1.74805
14681.8
14534.5
14387.1
14239.7
14092.1
13944.4
13796.6
13648.6
13500.3
13351.9
13203.2
13054.2
12904.8
12754.9
12604.6
12453.7
12302.1
12149.7
11996.5
11842.3
11687
11530.6
11373
11214
11053.3
10891
10727.4
10562.6
10396.6
10229.3
10060.3
9889.51
9717.66
9545.67
9374.54
9205.34
9039.04
8876.52
8718.39
8564.93
8415.93
8271.33
8130.74
7990.87
7850.23
7709.91
7570.11
7430.87
7292.11
7153.71
7015.46
6877.17
6738.63
6599.66
6460.09
6319.79
6178.7
6037.05
5894.91
5751.98
5608.26
5463.92
5319.08
5173.84
5028.26
4882.4
4736.29
4589.97
4443.51
4296.89
4150.14
4003.3
3856.38
3709.41
3562.4
3415.36
3268.29
3121.21
2974.11
2827
2679.89
2532.79
2385.68
2238.58
2091.49
1944.41
1797.33
1650.26
1503.2
1356.15
1209.1
1062.05
915.068
767.898
621.068
473.847
327.122
179.924
53.5743
0.0890937
-0.0898103
-0.282968
-0.462222
-0.647155
-0.830848
-1.01414
-1.19783
-1.38128
-1.56487
-1.74844