/*--------------------------------*- C++ -*----------------------------------*\
| =========                 |                                                 |
| \\      /  F ield         | OpenFOAM: The Open Source CFD Toolbox           |
|  \\    /   O peration     | Version:  v2106                                 |
|   \\  /    A nd           | Website:  www.openfoam.com                      |
|    \\/     M anipulation  |                                                 |
\*---------------------------------------------------------------------------*/
FoamFile
{
    version     2.0;
    format      ascii;
    arch        "LSB;label=32;scalar=64";
    class       volScalarField;
    location    "1.9";
    object      p_rgh;
}
// * * * * * * * * * * * * * * * * * * * * * * * * * * * * * * * * * * * * * //

dimensions      [1 -1 -2 0 0 0 0];

internalField   nonuniform List<scalar> 
29678
(
-0.522972
-0.537794
-0.56177
-0.598459
-0.653617
-0.727208
-0.819776
-0.939705
-1.09816
-1.31585
-1.63568
-2.15239
-3.07914
-4.84802
-8.14258
-14.213
-24.6177
-43.6854
-52.0058
-57.1592
-61.4906
-65.3138
-68.8446
-72.1761
-75.4177
-78.5667
-81.6758
-84.7037
-87.6765
-90.5924
-93.4683
-96.2923
-99.0633
-101.787
-104.462
-107.091
-109.671
-112.206
-114.686
-117.098
-119.446
-121.722
-123.91
-126.01
-128.023
-129.934
-131.756
-133.505
-135.182
-136.796
-138.387
-140.037
-141.9
-144.349
-147.95
-153.83
-164.124
-169.797
-173.17
-175.587
-177.564
-179.246
-180.658
-181.837
-182.836
-183.785
-185.058
-187.197
-188.951
-190.705
-192.176
-193.716
-195.749
-197.703
-199.471
-201.138
-202.795
-204.494
-207.163
-209.647
-211.778
-214.187
-215.628
-217.1
-218.701
-220.439
-222.474
-224.533
-226.2
-228.296
-230.304
-232.338
-234.866
-237.596
-240.361
-242.102
-245.026
-247.853
-43.2602
0.00252913
-0.181724
-0.0504408
-0.0772848
-0.0421472
-0.0426398
-0.0322625
-0.0291559
-0.0243633
-0.0223796
-0.0202578
-1.47607
-1.50372
-1.55975
-1.66891
-1.8363
-2.05009
-2.31791
-2.65719
-3.08875
-3.64326
-4.36563
-5.31556
-6.55511
-8.15314
-10.3499
-14.1656
-21.1409
-38.2936
-47.4759
-53.6155
-58.5498
-62.8487
-66.7698
-70.4399
-73.9477
-77.3272
-80.626
-83.8395
-86.9852
-90.0685
-93.1012
-96.0794
-99.001
-101.869
-104.683
-107.442
-110.146
-112.797
-115.391
-117.92
-120.382
-122.771
-125.077
-127.3
-129.44
-131.493
-133.47
-135.39
-137.267
-139.116
-140.97
-142.891
-144.965
-147.284
-150.139
-154.885
-163.182
-168.706
-172.381
-175.1
-177.311
-179.186
-180.767
-182.09
-183.2
-184.214
-185.281
-187.312
-189.192
-190.97
-192.43
-193.97
-195.959
-197.882
-199.616
-201.231
-202.809
-204.304
-206.784
-209.195
-211.302
-213.636
-215.137
-216.631
-218.233
-219.94
-221.881
-223.877
-225.547
-227.538
-229.489
-231.468
-233.773
-236.287
-238.818
-240.863
-243.526
-246.536
-44.2418
-0.101359
-0.144521
-0.0489164
-0.0552991
-0.0324013
-0.0311048
-0.0243448
-0.0219454
-0.018832
-0.0177314
-0.0166064
-2.39413
-2.43897
-2.53774
-2.71962
-2.98752
-3.33144
-3.76382
-4.30682
-4.98805
-5.84681
-6.94075
-8.35803
-10.2449
-12.8736
-16.7201
-22.2638
-29.5498
-38.3191
-45.4188
-51.2541
-56.3162
-60.8518
-65.0249
-68.942
-72.6758
-76.2706
-79.7601
-83.1589
-86.4801
-89.7326
-92.9226
-96.0511
-99.118
-102.124
-105.069
-107.953
-110.774
-113.531
-116.224
-118.848
-121.4
-123.875
-126.265
-128.571
-130.794
-132.94
-135.021
-137.055
-139.061
-141.067
-143.12
-145.296
-147.71
-150.542
-154.198
-158.639
-163.431
-167.657
-170.984
-173.674
-175.944
-177.906
-179.632
-181.182
-182.622
-184.042
-185.541
-187.232
-188.907
-190.53
-192.127
-193.774
-195.501
-197.22
-198.921
-200.634
-202.382
-204.215
-206.25
-208.287
-210.21
-212.131
-213.886
-215.583
-217.29
-219.057
-220.913
-222.807
-224.641
-226.589
-228.575
-230.606
-232.757
-234.989
-237.196
-239.316
-241.573
-243.988
-48.9449
-0.0586343
-0.055964
-0.0366751
-0.0365288
-0.0260761
-0.023301
-0.0195392
-0.0174129
-0.0157808
-0.0148408
-0.0144035
-3.25305
-3.31442
-3.45542
-3.70544
-4.06494
-4.52714
-5.10787
-5.83109
-6.72715
-7.83748
-9.2194
-10.9539
-13.1562
-15.9785
-19.568
-24.0637
-29.6595
-36.5519
-43.1867
-49.0558
-54.2861
-59.0388
-63.4386
-67.5768
-71.5194
-75.3118
-78.9859
-82.5613
-86.0515
-89.4659
-92.8101
-96.0868
-99.2968
-102.44
-105.517
-108.526
-111.466
-114.335
-117.132
-119.854
-122.499
-125.061
-127.54
-129.935
-132.251
-134.497
-136.685
-138.834
-140.967
-143.113
-145.317
-147.636
-150.147
-152.94
-156.057
-159.57
-163.55
-167.331
-170.57
-173.318
-175.685
-177.761
-179.598
-181.249
-182.772
-184.24
-185.724
-187.354
-189.015
-190.646
-192.246
-193.868
-195.554
-197.254
-198.934
-200.589
-202.261
-203.994
-205.872
-207.805
-209.694
-211.528
-213.257
-214.944
-216.64
-218.381
-220.171
-222.006
-223.847
-225.722
-227.636
-229.6
-231.635
-233.731
-235.84
-238.033
-240.275
-243.075
-49.4978
-0.0294124
-0.0373746
-0.0248553
-0.0240688
-0.018198
-0.016172
-0.0139297
-0.012581
-0.0117052
-0.0113281
-0.011368
-4.03152
-4.10835
-4.28859
-4.59999
-5.04078
-5.6076
-6.3176
-7.19455
-8.26841
-9.57829
-11.1751
-13.1257
-15.5176
-18.4562
-22.0484
-26.3935
-31.5668
-37.3386
-43.0438
-48.3863
-53.36
-58.0223
-62.4322
-66.6403
-70.6873
-74.6036
-78.4118
-82.1272
-85.7603
-89.3178
-92.8039
-96.2204
-99.5675
-102.845
-106.051
-109.184
-112.242
-115.223
-118.125
-120.946
-123.684
-126.336
-128.901
-131.383
-133.785
-136.119
-138.396
-140.634
-142.857
-145.091
-147.371
-149.743
-152.259
-154.973
-157.926
-161.134
-164.491
-167.709
-170.61
-173.168
-175.432
-177.45
-179.283
-180.98
-182.585
-184.146
-185.706
-187.294
-188.876
-190.443
-192.014
-193.599
-195.203
-196.816
-198.441
-200.088
-201.768
-203.495
-205.268
-207.046
-208.803
-210.542
-212.257
-213.963
-215.677
-217.418
-219.193
-221.006
-222.845
-224.714
-226.611
-228.533
-230.486
-232.468
-234.4
-236.389
-238.248
-240.57
-52.3637
-0.0172809
-0.0221866
-0.0147332
-0.0153688
-0.0114015
-0.010518
-0.00927725
-0.00864981
-0.00837914
-0.00844215
-0.00880108
-4.71094
-4.80223
-5.01742
-5.38282
-5.89454
-6.55156
-7.37096
-8.37505
-9.59153
-11.0549
-12.8075
-14.9008
-17.3971
-20.3652
-23.8647
-27.9264
-32.5229
-37.5068
-42.6016
-47.595
-52.4063
-57.0252
-61.4669
-65.7539
-69.9084
-73.9498
-77.8932
-81.7498
-85.527
-89.2298
-92.8607
-96.4204
-99.9082
-103.322
-106.661
-109.922
-113.101
-116.198
-119.208
-122.13
-124.962
-127.704
-130.354
-132.917
-135.399
-137.808
-140.158
-142.466
-144.753
-147.041
-149.36
-151.742
-154.223
-156.83
-159.575
-162.441
-165.365
-168.221
-170.878
-173.298
-175.502
-177.512
-179.363
-181.084
-182.709
-184.276
-185.823
-187.375
-188.926
-190.47
-192.011
-193.56
-195.123
-196.697
-198.28
-199.877
-201.495
-203.144
-204.829
-206.534
-208.242
-209.942
-211.624
-213.299
-214.979
-216.679
-218.406
-220.159
-221.935
-223.74
-225.573
-227.428
-229.297
-231.188
-233.011
-234.933
-236.586
-238.588
-54.6143
-0.00920346
-0.0177357
-0.00682269
-0.00954239
-0.00559795
-0.00593208
-0.00524862
-0.00520231
-0.00539783
-0.0058377
-0.00647946
-5.27525
-5.37962
-5.62559
-6.03741
-6.60991
-7.34298
-8.25278
-9.35935
-10.6871
-12.2652
-14.1274
-16.3118
-18.8604
-21.8159
-25.2088
-29.0424
-33.2775
-37.8156
-42.5068
-47.2168
-51.8601
-56.3996
-60.8269
-65.1468
-69.3683
-73.5008
-77.5524
-81.5292
-85.4349
-89.2715
-93.0391
-96.7364
-100.361
-103.91
-107.38
-110.768
-114.069
-117.28
-120.398
-123.421
-126.347
-129.176
-131.908
-134.547
-137.098
-139.572
-141.98
-144.339
-146.665
-148.981
-151.307
-153.667
-156.083
-158.571
-161.134
-163.755
-166.39
-168.967
-171.407
-173.67
-175.756
-177.687
-179.483
-181.171
-182.781
-184.34
-185.871
-187.388
-188.893
-190.389
-191.883
-193.38
-194.887
-196.404
-197.934
-199.483
-201.054
-202.651
-204.269
-205.9
-207.534
-209.169
-210.806
-212.449
-214.106
-215.785
-217.489
-219.216
-220.966
-222.736
-224.527
-226.333
-228.141
-229.967
-231.698
-233.524
-234.959
-236.643
-56.4683
-0.0062881
-0.0126869
-0.000606532
-0.00488209
-0.000746247
-0.00226854
-0.00187889
-0.00234874
-0.00292923
-0.00367757
-0.00455832
-5.71047
-5.82624
-6.09903
-6.55028
-7.17402
-7.97023
-8.95352
-10.1413
-11.5543
-13.2164
-15.1539
-17.3941
-19.9647
-22.8906
-26.1856
-29.8422
-33.825
-38.0663
-42.4741
-46.9581
-51.4502
-55.9088
-60.3134
-64.6558
-68.9341
-73.1494
-77.303
-81.3959
-85.428
-89.3978
-93.3029
-97.1397
-100.904
-104.591
-108.196
-111.713
-115.139
-118.468
-121.697
-124.822
-127.842
-130.757
-133.567
-136.276
-138.89
-141.418
-143.87
-146.262
-148.61
-150.93
-153.239
-155.556
-157.895
-160.266
-162.667
-165.085
-167.49
-169.837
-172.08
-174.189
-176.162
-178.011
-179.75
-181.397
-182.973
-184.499
-185.991
-187.463
-188.921
-190.371
-191.817
-193.266
-194.723
-196.189
-197.668
-199.162
-200.675
-202.208
-203.76
-205.327
-206.904
-208.49
-210.084
-211.689
-213.308
-214.947
-216.608
-218.292
-219.997
-221.723
-223.468
-225.225
-226.981
-228.761
-230.441
-232.232
-233.598
-235.219
-57.5492
0.00300881
-0.00687309
0.0046406
-0.000560665
0.00326039
0.000741253
0.000937841
-1.42635e-05
-0.000911169
-0.00191928
-0.00301297
-6.00469
-6.13017
-6.42586
-6.91033
-7.57679
-8.42492
-9.46751
-10.7192
-12.197
-13.9202
-15.9088
-18.1823
-20.7586
-23.6514
-26.8655
-30.3899
-34.1957
-38.2348
-42.446
-46.7663
-51.1427
-55.5365
-59.9224
-64.2854
-68.6162
-72.9095
-77.1611
-81.3673
-85.5242
-89.6272
-93.6709
-97.6494
-101.556
-105.385
-109.128
-112.779
-116.332
-119.781
-123.122
-126.351
-129.465
-132.463
-135.348
-138.121
-140.789
-143.36
-145.845
-148.256
-150.607
-152.914
-155.191
-157.451
-159.705
-161.959
-164.213
-166.456
-168.668
-170.822
-172.889
-174.853
-176.709
-178.462
-180.123
-181.706
-183.227
-184.701
-186.142
-187.561
-188.965
-190.36
-191.753
-193.147
-194.547
-195.957
-197.379
-198.817
-200.271
-201.745
-203.236
-204.742
-206.263
-207.796
-209.343
-210.904
-212.483
-214.082
-215.703
-217.346
-219.011
-220.697
-222.402
-224.123
-225.843
-227.596
-229.262
-231.065
-232.441
-234.21
-58.1543
0.0138083
-0.00108914
0.00918956
0.0033879
0.00650043
0.00325395
0.00325269
0.00184578
0.000691606
-0.000536919
-0.00181844
-6.14792
-6.28156
-6.5965
-7.10865
-7.81041
-8.70095
-9.79121
-11.0932
-12.6207
-14.3887
-16.4126
-18.7063
-21.281
-24.1442
-27.2955
-30.7241
-34.4066
-38.3081
-42.3851
-46.5919
-50.8869
-55.2362
-59.6144
-64.0029
-68.3882
-72.7601
-77.1103
-81.431
-85.7148
-89.9538
-94.1399
-98.2646
-102.319
-106.294
-110.18
-113.97
-117.655
-121.229
-124.684
-128.018
-131.225
-134.306
-137.262
-140.094
-142.809
-145.414
-147.919
-150.336
-152.678
-154.957
-157.187
-159.379
-161.541
-163.68
-165.796
-167.881
-169.922
-171.904
-173.811
-175.633
-177.367
-179.016
-180.587
-182.092
-183.544
-184.954
-186.332
-187.69
-189.033
-190.369
-191.701
-193.036
-194.377
-195.728
-197.092
-198.47
-199.866
-201.279
-202.71
-204.159
-205.623
-207.104
-208.602
-210.117
-211.652
-213.209
-214.788
-216.391
-218.016
-219.663
-221.33
-223.018
-224.71
-226.45
-228.115
-229.961
-231.407
-233.432
-58.5449
0.0205029
0.00469567
0.0127302
0.00677299
0.00902829
0.00535091
0.00510548
0.00330315
0.0019407
0.000522433
-0.000924836
-6.13194
-6.27239
-6.60327
-7.13825
-7.86895
-8.79392
-9.92249
-11.2644
-12.8304
-14.6323
-16.6817
-18.9885
-21.5601
-24.4
-27.5059
-30.8676
-34.4668
-38.2769
-42.266
-46.3996
-50.6448
-54.9724
-59.3582
-63.7826
-68.2297
-72.686
-77.1399
-81.5802
-85.9962
-90.3773
-94.7122
-98.9899
-103.199
-107.327
-111.365
-115.3
-119.123
-122.825
-126.399
-129.84
-133.142
-136.304
-139.327
-142.213
-144.967
-147.597
-150.112
-152.523
-154.842
-157.082
-159.253
-161.368
-163.433
-165.456
-167.439
-169.373
-171.255
-173.079
-174.835
-176.518
-178.126
-179.663
-181.136
-182.552
-183.923
-185.257
-186.564
-187.852
-189.128
-190.397
-191.665
-192.937
-194.216
-195.505
-196.807
-198.125
-199.46
-200.813
-202.184
-203.574
-204.983
-206.411
-207.858
-209.325
-210.815
-212.327
-213.863
-215.423
-217.007
-218.615
-220.247
-221.904
-223.573
-225.304
-226.977
-228.871
-230.393
-232.634
-59.1066
0.0239778
0.00974115
0.0153101
0.00966039
0.0107717
0.00709559
0.00652715
0.0044292
0.00289553
0.00131421
-0.000277428
-5.94998
-6.09613
-6.44001
-6.99365
-7.7479
-8.70067
-9.86
-11.2336
-12.8301
-14.6584
-16.7275
-19.0447
-21.6147
-24.4391
-27.5149
-30.8333
-34.3797
-38.1338
-42.071
-46.1647
-50.3883
-54.7169
-59.1282
-63.6025
-68.1226
-72.6729
-77.2393
-81.8078
-86.3649
-90.897
-95.3903
-99.8305
-104.204
-108.496
-112.693
-116.781
-120.75
-124.587
-128.285
-131.835
-135.232
-138.475
-141.562
-144.497
-147.284
-149.93
-152.444
-154.838
-157.122
-159.31
-161.413
-163.44
-165.403
-167.306
-169.151
-170.94
-172.672
-174.343
-175.951
-177.495
-178.975
-180.395
-181.76
-183.079
-184.358
-185.608
-186.834
-188.046
-189.248
-190.446
-191.645
-192.849
-194.062
-195.287
-196.525
-197.78
-199.053
-200.345
-201.656
-202.988
-204.34
-205.713
-207.108
-208.526
-209.967
-211.433
-212.925
-214.441
-215.985
-217.553
-219.149
-220.776
-222.421
-224.139
-225.816
-227.741
-229.329
-231.689
-59.9759
0.0258906
0.0137728
0.0170795
0.0119174
0.0119958
0.00851019
0.00757447
0.00529059
0.00360922
0.00189128
0.00017655
-5.59647
-5.7474
-6.10174
-6.67044
-7.44366
-8.4188
-9.60278
-11.0019
-12.6227
-14.4726
-16.5582
-18.8852
-21.4569
-24.274
-27.3334
-30.628
-34.1461
-37.8718
-41.7863
-45.8682
-50.0958
-54.4475
-58.9031
-63.4433
-68.0505
-72.7077
-77.3987
-82.1074
-86.8177
-91.5131
-96.1769
-100.792
-105.342
-109.809
-114.177
-118.43
-122.554
-126.534
-130.361
-134.025
-137.52
-140.842
-143.991
-146.969
-149.781
-152.434
-154.937
-157.302
-159.54
-161.664
-163.686
-165.618
-167.468
-169.245
-170.951
-172.594
-174.174
-175.695
-177.156
-178.559
-179.906
-181.202
-182.453
-183.665
-184.846
-186.003
-187.142
-188.27
-189.392
-190.514
-191.64
-192.773
-193.917
-195.074
-196.246
-197.437
-198.646
-199.875
-201.126
-202.398
-203.693
-205.011
-206.352
-207.718
-209.11
-210.528
-211.973
-213.445
-214.945
-216.474
-218.032
-219.625
-221.243
-222.937
-224.603
-226.527
-228.139
-230.548
-61.0902
0.0269469
0.0167956
0.0181805
0.0135992
0.0127452
0.00966076
0.00830765
0.00593894
0.00412543
0.00229943
0.000483478
-5.06679
-5.22174
-5.58439
-6.16514
-6.9535
-7.94658
-9.15031
-10.5699
-12.2107
-14.0787
-16.1794
-18.5171
-21.0945
-23.912
-26.9671
-30.2542
-33.7641
-37.4845
-41.4003
-45.4947
-49.7492
-54.1454
-58.6646
-63.2885
-67.9992
-72.7788
-77.6097
-82.4736
-87.3521
-92.2261
-97.0762
-101.882
-106.624
-111.282
-115.835
-120.265
-124.555
-128.688
-132.652
-136.435
-140.029
-143.431
-146.639
-149.655
-152.484
-155.134
-157.615
-159.938
-162.117
-164.164
-166.094
-167.918
-169.647
-171.287
-172.849
-174.341
-175.768
-177.135
-178.446
-179.704
-180.913
-182.08
-183.209
-184.307
-185.382
-186.438
-187.483
-188.522
-189.56
-190.601
-191.649
-192.707
-193.779
-194.866
-195.97
-197.094
-198.238
-199.404
-200.592
-201.804
-203.04
-204.301
-205.588
-206.901
-208.241
-209.609
-211.006
-212.432
-213.888
-215.374
-216.891
-218.446
-220.025
-221.68
-223.312
-225.189
-226.798
-229.168
-62.4548
0.0276116
0.018808
0.0187419
0.0147405
0.0132406
0.0104293
0.00878066
0.00640764
0.00448044
0.00257712
0.000681674
-4.35708
-4.51543
-4.88463
-5.47487
-6.27523
-7.28256
-8.50205
-9.93823
-11.5957
-13.4795
-15.5945
-17.9443
-20.5315
-23.3566
-26.4181
-29.7116
-33.2303
-36.9646
-40.9027
-45.0308
-49.3335
-53.7946
-58.3971
-63.1235
-67.9559
-72.8759
-77.8645
-82.9016
-87.9667
-93.0381
-98.0933
-103.109
-108.062
-112.928
-117.684
-122.308
-126.778
-131.076
-135.185
-139.093
-142.791
-146.272
-149.536
-152.584
-155.422
-158.058
-160.504
-162.772
-164.877
-166.834
-168.657
-170.361
-171.952
-173.445
-174.854
-176.188
-177.456
-178.664
-179.819
-180.926
-181.991
-183.021
-184.022
-185
-185.961
-186.911
-187.855
-188.8
-189.748
-190.704
-191.67
-192.651
-193.647
-194.661
-195.696
-196.751
-197.829
-198.93
-200.055
-201.205
-202.381
-203.584
-204.814
-206.073
-207.36
-208.677
-210.024
-211.402
-212.811
-214.252
-215.724
-217.233
-218.765
-220.364
-221.94
-223.73
-225.295
-227.513
-64.1883
0.0274685
0.0197714
0.0188086
0.0153762
0.0134906
0.010939
0.00901088
0.00672572
0.00471103
0.00275741
0.000801439
-3.46393
-3.62522
-3.99948
-4.59698
-5.40682
-6.42535
-7.65733
-9.10693
-10.7783
-12.6763
-14.8052
-17.1688
-19.7696
-22.6088
-25.6857
-28.9977
-32.5397
-36.3046
-40.2832
-44.4643
-48.8349
-53.3808
-58.0865
-62.9353
-67.9094
-72.9899
-78.1567
-83.3881
-88.6614
-93.9522
-99.235
-104.483
-109.67
-114.766
-119.746
-124.582
-129.25
-133.726
-137.993
-142.035
-145.839
-149.4
-152.716
-155.79
-158.626
-161.237
-163.633
-165.831
-167.846
-169.695
-171.394
-172.957
-174.397
-175.732
-176.976
-178.143
-179.242
-180.283
-181.274
-182.222
-183.136
-184.022
-184.887
-185.737
-186.578
-187.416
-188.255
-189.099
-189.954
-190.82
-191.702
-192.602
-193.52
-194.46
-195.422
-196.407
-197.417
-198.452
-199.513
-200.6
-201.715
-202.858
-204.031
-205.233
-206.465
-207.729
-209.025
-210.354
-211.715
-213.107
-214.532
-215.989
-217.466
-218.998
-220.502
-222.172
-223.639
-225.594
-66.3504
0.0256832
0.0197268
0.0183574
0.0155526
0.013509
0.011175
0.00912343
0.00693511
0.00485633
0.00286926
0.000865457
-2.38435
-2.54823
-2.92624
-3.52908
-4.34627
-5.37336
-6.61505
-8.07535
-9.75847
-11.6692
-13.8119
-16.1906
-18.8083
-21.6671
-24.7674
-28.1081
-31.686
-35.4961
-39.5315
-43.7833
-48.2405
-52.8908
-57.7199
-62.7119
-67.8493
-73.1126
-78.4807
-83.9305
-89.437
-94.9731
-100.51
-106.018
-111.464
-116.818
-122.046
-127.118
-132.004
-136.677
-141.115
-145.298
-149.215
-152.856
-156.22
-159.31
-162.134
-164.704
-167.035
-169.144
-171.05
-172.772
-174.327
-175.73
-177
-178.16
-179.225
-180.21
-181.129
-181.991
-182.809
-183.59
-184.344
-185.078
-185.8
-186.515
-187.23
-187.949
-188.677
-189.418
-190.174
-190.948
-191.742
-192.558
-193.397
-194.26
-195.148
-196.062
-197.002
-197.969
-198.965
-199.988
-201.041
-202.123
-203.236
-204.38
-205.557
-206.766
-208.01
-209.287
-210.598
-211.942
-213.317
-214.722
-216.142
-217.602
-219.024
-220.555
-221.882
-223.501
-68.8571
0.022282
0.0189522
0.0175513
0.0153996
0.0133629
0.0112435
0.0091321
0.00707966
0.00493608
0.00293581
0.000888954
-1.11578
-1.28198
-1.6624
-2.26892
-3.09148
-4.12477
-5.37359
-6.84212
-8.53491
-10.457
-12.6131
-15.0079
-17.6453
-20.5282
-23.6586
-27.0368
-30.6615
-34.5299
-38.6369
-42.9758
-47.5377
-52.3117
-57.2848
-62.4419
-67.7657
-73.2364
-78.8319
-84.5275
-90.2959
-96.1074
-101.93
-107.728
-113.467
-119.108
-124.615
-129.95
-135.079
-139.969
-144.594
-148.931
-152.964
-156.686
-160.093
-163.19
-165.987
-168.499
-170.744
-172.743
-174.517
-176.089
-177.474
-178.693
-179.775
-180.74
-181.608
-182.396
-183.119
-183.791
-184.423
-185.026
-185.61
-186.184
-186.755
-187.329
-187.911
-188.506
-189.118
-189.75
-190.405
-191.083
-191.787
-192.517
-193.274
-194.058
-194.871
-195.712
-196.582
-197.481
-198.409
-199.368
-200.357
-201.377
-202.429
-203.514
-204.633
-205.787
-206.977
-208.202
-209.463
-210.758
-212.085
-213.44
-214.806
-216.2
-217.547
-218.946
-220.123
-221.403
-71.4614
0.0181149
0.0179301
0.0166583
0.0150927
0.0131244
0.0112456
0.00908432
0.00717815
0.00496319
0.00297957
0.000883144
0.343933
0.175676
-0.205817
-0.814488
-1.64047
-2.67762
-3.93099
-5.40526
-7.10553
-9.0373
-11.2061
-13.6175
-16.2764
-19.1872
-22.3531
-25.7762
-29.4573
-33.3955
-37.5878
-42.0294
-46.7134
-51.6304
-56.7687
-62.114
-67.6492
-73.3542
-79.206
-85.1784
-91.2418
-97.3633
-103.507
-109.634
-115.702
-121.669
-127.49
-133.121
-138.522
-143.654
-148.485
-152.988
-157.144
-160.945
-164.388
-167.479
-170.232
-172.665
-174.8
-176.662
-178.278
-179.667
-180.853
-181.866
-182.734
-183.483
-184.133
-184.705
-185.215
-185.681
-186.114
-186.527
-186.931
-187.336
-187.747
-188.172
-188.616
-189.082
-189.573
-190.093
-190.642
-191.222
-191.833
-192.475
-193.149
-193.854
-194.59
-195.358
-196.156
-196.986
-197.846
-198.738
-199.663
-200.619
-201.61
-202.635
-203.695
-204.792
-205.927
-207.1
-208.311
-209.558
-210.84
-212.151
-213.475
-214.82
-216.113
-217.419
-218.487
-219.517
-73.8015
0.0145578
0.0173696
0.0158017
0.0150707
0.0128187
0.0112986
0.00891476
0.00734101
0.00497297
0.00302209
0.000862063
1.99652
1.8266
1.44518
0.835925
0.0085937
-1.02987
-2.28501
-3.76225
-5.46743
-7.40682
-9.58704
-12.0147
-14.6962
-17.6372
-20.8429
-24.3172
-28.063
-32.0812
-36.3713
-40.9306
-45.7538
-50.8333
-56.1588
-61.7167
-67.4903
-73.4593
-79.5997
-85.8838
-92.2796
-98.7511
-105.258
-111.757
-118.199
-124.535
-130.713
-136.681
-142.39
-147.793
-152.852
-157.535
-161.821
-165.699
-169.167
-172.236
-174.922
-177.249
-179.245
-180.94
-182.365
-183.537
-184.491
-185.266
-185.892
-186.397
-186.805
-187.139
-187.418
-187.66
-187.879
-188.089
-188.302
-188.526
-188.77
-189.04
-189.338
-189.67
-190.038
-190.442
-190.883
-191.362
-191.878
-192.432
-193.021
-193.645
-194.304
-194.997
-195.723
-196.483
-197.275
-198.1
-198.959
-199.851
-200.778
-201.741
-202.742
-203.781
-204.859
-205.979
-207.141
-208.343
-209.585
-210.861
-212.159
-213.479
-214.758
-216.036
-217.085
-218.042
-75.5287
0.0129606
0.0175394
0.0153376
0.0154027
0.0125461
0.0115339
0.00881013
0.00742253
0.00495073
0.00306636
0.000846842
3.84334
3.67223
3.29185
2.68374
1.8574
0.82051
-0.433217
-1.91017
-3.61708
-5.56133
-7.75082
-10.1936
-12.8975
-15.8702
-19.1186
-22.649
-26.4663
-30.5739
-34.9736
-39.6646
-44.6441
-49.906
-55.4416
-61.2381
-67.2793
-73.5448
-80.0098
-86.645
-93.416
-100.284
-107.203
-114.124
-120.993
-127.751
-134.337
-140.69
-146.748
-152.459
-157.773
-162.654
-167.075
-171.024
-174.504
-177.528
-180.119
-182.308
-184.129
-185.619
-186.804
-187.72
-188.409
-188.911
-189.262
-189.493
-189.631
-189.702
-189.727
-189.726
-189.714
-189.707
-189.716
-189.75
-189.818
-189.924
-190.073
-190.266
-190.505
-190.79
-191.122
-191.499
-191.919
-192.382
-192.886
-193.429
-194.011
-194.629
-195.283
-195.972
-196.695
-197.453
-198.245
-199.072
-199.935
-200.835
-201.774
-202.753
-203.774
-204.84
-205.952
-207.111
-208.317
-209.569
-210.857
-212.182
-213.495
-214.824
-215.977
-217.084
-76.4076
0.0139316
0.018469
0.0155624
0.0161217
0.0121454
0.0120095
0.00866064
0.00750725
0.00493521
0.0031016
0.000855142
5.88542
5.71347
5.335
4.73003
3.90749
2.87553
1.62698
0.154273
-1.55046
-3.49597
-5.69164
-8.14714
-10.8722
-13.8766
-17.1694
-20.7593
-24.6538
-28.8589
-33.3788
-38.2155
-43.3681
-48.8329
-54.6024
-60.6653
-67.0059
-73.6039
-80.4336
-87.4644
-94.6595
-101.976
-109.365
-116.77
-124.128
-131.371
-138.427
-145.221
-151.681
-157.741
-163.343
-168.439
-173.001
-177.015
-180.486
-183.436
-185.895
-187.904
-189.506
-190.748
-191.644
-192.255
-192.632
-192.82
-192.857
-192.778
-192.615
-192.395
-192.142
-191.876
-191.615
-191.374
-191.166
-191
-190.883
-190.819
-190.812
-190.862
-190.969
-191.134
-191.354
-191.627
-191.952
-192.324
-192.743
-193.206
-193.71
-194.253
-194.835
-195.453
-196.108
-196.797
-197.522
-198.283
-199.08
-199.916
-200.791
-201.708
-202.67
-203.68
-204.742
-205.858
-207.032
-208.266
-209.558
-210.915
-212.304
-213.759
-215.134
-216.579
-76.4368
0.0172615
0.0201628
0.0163227
0.0166665
0.0123827
0.0123012
0.00866614
0.00758403
0.00493483
0.00310466
0.000877905
8.12312
7.95047
7.57464
6.97546
6.16018
5.13708
3.89822
2.43452
0.736748
-1.20541
-3.40301
-5.86763
-8.61117
-11.6457
-14.983
-18.6345
-22.6104
-26.9198
-31.5699
-36.5654
-41.9081
-47.5967
-53.6255
-59.9846
-66.6593
-73.6294
-80.8688
-88.3454
-96.0204
-103.847
-111.772
-119.732
-127.654
-135.458
-143.059
-150.366
-157.291
-163.752
-169.679
-175.013
-179.718
-183.783
-187.218
-190.053
-192.332
-194.108
-195.438
-196.354
-196.914
-197.17
-197.184
-197.01
-196.689
-196.262
-195.762
-195.219
-194.659
-194.105
-193.574
-193.083
-192.644
-192.266
-191.955
-191.715
-191.546
-191.45
-191.424
-191.467
-191.575
-191.745
-191.973
-192.256
-192.59
-192.973
-193.4
-193.87
-194.38
-194.928
-195.514
-196.135
-196.792
-197.486
-198.216
-198.985
-199.795
-200.647
-201.547
-202.498
-203.506
-204.576
-205.717
-206.936
-208.239
-209.641
-211.13
-212.76
-214.441
-216.333
-75.9068
0.0227423
0.0219408
0.0177071
0.0172962
0.0126777
0.0126443
0.00872554
0.00765419
0.0049163
0.00308313
0.000881418
10.556
10.3825
10.0108
9.42064
8.61655
7.60692
6.38304
4.93393
3.24888
1.31583
-0.878131
-3.34675
-6.10443
-9.16592
-12.546
-16.2593
-20.3193
-24.7385
-29.5276
-34.6945
-40.2443
-46.1782
-52.4931
-59.1807
-66.2275
-73.6137
-81.3132
-89.2928
-97.5116
-105.92
-114.46
-123.059
-131.636
-140.096
-148.335
-156.243
-163.71
-170.64
-176.942
-182.538
-187.383
-191.474
-194.831
-197.495
-199.529
-201.008
-202.007
-202.532
-202.674
-202.504
-202.094
-201.501
-200.772
-199.951
-199.072
-198.17
-197.273
-196.404
-195.582
-194.823
-194.139
-193.538
-193.024
-192.601
-192.268
-192.022
-191.861
-191.782
-191.778
-191.846
-191.98
-192.175
-192.426
-192.731
-193.083
-193.48
-193.92
-194.398
-194.915
-195.468
-196.057
-196.682
-197.344
-198.044
-198.784
-199.569
-200.402
-201.289
-202.238
-203.257
-204.359
-205.556
-206.864
-208.312
-209.897
-211.714
-213.724
-216.087
-75.2441
0.027679
0.0244385
0.0192611
0.0178332
0.0129927
0.0129673
0.00874079
0.00766287
0.00484371
0.0030436
0.000852706
13.183
13.0086
12.6421
12.0643
11.277
10.2863
9.08343
7.65536
5.98985
4.07299
1.8898
-0.575998
-3.34161
-6.42489
-9.84404
-13.6173
-17.7621
-22.295
-27.2306
-32.5809
-38.3547
-44.5563
-51.1857
-58.2367
-65.6974
-73.549
-81.7654
-90.3127
-99.149
-108.223
-117.47
-126.814
-136.161
-145.397
-154.403
-163.035
-171.143
-178.619
-185.353
-191.234
-196.202
-200.281
-203.508
-205.932
-207.63
-208.703
-209.215
-209.264
-208.901
-208.233
-207.345
-206.287
-205.107
-203.85
-202.552
-201.25
-199.98
-198.767
-197.628
-196.581
-195.636
-194.8
-194.076
-193.465
-192.963
-192.568
-192.273
-192.072
-191.959
-191.927
-191.969
-192.078
-192.25
-192.478
-192.758
-193.084
-193.454
-193.865
-194.313
-194.798
-195.318
-195.873
-196.464
-197.093
-197.761
-198.473
-199.234
-200.05
-200.932
-201.89
-202.941
-204.102
-205.396
-206.87
-208.52
-210.487
-212.773
-215.505
-74.9803
0.0326264
0.0256237
0.0207249
0.0181315
0.0131712
0.0132216
0.00870514
0.00753413
0.00468891
0.00294991
0.000801715
16.0007
15.8263
15.4653
14.9037
14.1403
13.1752
12.0003
10.6007
8.96276
7.07073
4.90729
2.45313
-0.312052
-3.40957
-6.86158
-10.6906
-14.9188
-19.5673
-24.6555
-30.2002
-36.2145
-42.7072
-49.6813
-57.1338
-65.0548
-73.4268
-82.2243
-91.414
-100.954
-110.792
-120.866
-131.095
-141.381
-151.567
-161.515
-171.022
-179.854
-187.892
-195.066
-201.251
-206.393
-210.475
-213.525
-215.624
-216.885
-217.437
-217.363
-216.771
-215.788
-214.506
-213.011
-211.375
-209.652
-207.889
-206.122
-204.395
-202.741
-201.171
-199.698
-198.341
-197.12
-196.037
-195.095
-194.292
-193.621
-193.076
-192.648
-192.33
-192.111
-191.982
-191.937
-191.965
-192.06
-192.216
-192.425
-192.683
-192.986
-193.329
-193.71
-194.126
-194.577
-195.061
-195.579
-196.133
-196.725
-197.359
-198.041
-198.778
-199.582
-200.466
-201.448
-202.551
-203.801
-205.261
-206.922
-208.961
-211.417
-214.211
-75.4924
0.0355488
0.026364
0.0213806
0.018242
0.013415
0.012541
0.00836817
0.00716074
0.00442803
0.00276404
0.000726768
19.0041
18.8303
18.4755
17.9354
17.2042
16.2721
15.1328
13.7702
12.1694
10.3126
8.18024
5.74876
2.99488
-0.106557
-3.58246
-7.4604
-11.7677
-16.5313
-21.7762
-27.525
-33.7964
-40.604
-47.9553
-55.851
-64.2838
-73.2383
-82.6908
-92.6096
-102.956
-113.692
-124.774
-136.109
-147.581
-158.915
-169.903
-180.366
-190.093
-198.891
-206.599
-213.115
-218.399
-222.402
-225.159
-226.797
-227.478
-227.353
-226.54
-225.195
-223.464
-221.439
-219.206
-216.863
-214.486
-212.13
-209.83
-207.615
-205.514
-203.546
-201.719
-200.054
-198.558
-197.227
-196.063
-195.065
-194.225
-193.533
-192.978
-192.546
-192.227
-192.009
-191.88
-191.832
-191.856
-191.942
-192.085
-192.277
-192.514
-192.792
-193.106
-193.454
-193.835
-194.246
-194.689
-195.165
-195.676
-196.226
-196.821
-197.47
-198.183
-198.975
-199.867
-200.885
-202.05
-203.446
-205.049
-207.057
-209.528
-212.286
-76.9975
0.0362975
0.0262252
0.0209782
0.0176302
0.0127655
0.0115952
0.00778403
0.0065166
0.00404495
0.00246731
0.000621835
22.1864
22.0136
21.6674
21.1545
20.4646
19.5726
18.4775
17.162
15.6097
13.8005
11.7139
9.31846
6.58942
3.49765
0.0100629
-3.9066
-8.28562
-13.1608
-18.5642
-24.5252
-31.0693
-38.2165
-45.9799
-54.3645
-63.3668
-72.975
-83.1689
-93.9254
-105.232
-117.083
-129.455
-142.135
-154.908
-167.606
-179.948
-191.649
-202.467
-212.145
-220.43
-227.227
-232.494
-236.234
-238.524
-239.534
-239.471
-238.51
-236.816
-234.584
-231.959
-229.055
-225.984
-222.846
-219.722
-216.677
-213.751
-210.967
-208.354
-205.928
-203.697
-201.678
-199.882
-198.303
-196.933
-195.759
-194.759
-193.927
-193.25
-192.713
-192.301
-192
-191.796
-191.678
-191.635
-191.657
-191.738
-191.868
-192.042
-192.256
-192.504
-192.784
-193.094
-193.431
-193.797
-194.191
-194.616
-195.076
-195.576
-196.125
-196.733
-197.416
-198.194
-199.094
-200.131
-201.404
-202.869
-204.736
-207.09
-209.692
-79.6521
0.0347142
0.0244838
0.0192322
0.0161719
0.0115986
0.0101806
0.00692039
0.00559921
0.00350965
0.00205915
0.000475462
25.5385
25.3659
25.0364
24.5563
23.9096
23.0677
22.0279
20.7721
19.2821
17.534
15.5138
13.1682
10.4808
7.41707
3.93349
-0.00817777
-4.44772
-9.42777
-14.988
-21.1671
-27.9986
-35.5107
-43.7232
-52.6473
-62.285
-72.6296
-83.676
-95.4463
-107.977
-121.225
-135.01
-149.24
-163.697
-178.132
-192.141
-205.31
-217.299
-227.828
-236.648
-243.633
-248.755
-252.059
-253.68
-253.864
-252.871
-250.934
-248.239
-244.993
-241.349
-237.445
-233.407
-229.349
-225.365
-221.525
-217.878
-214.448
-211.26
-208.322
-205.641
-203.235
-201.11
-199.256
-197.66
-196.309
-195.174
-194.229
-193.451
-192.822
-192.327
-191.952
-191.681
-191.5
-191.397
-191.362
-191.384
-191.456
-191.57
-191.722
-191.905
-192.118
-192.356
-192.618
-192.904
-193.213
-193.548
-193.911
-194.308
-194.747
-195.237
-195.791
-196.43
-197.18
-198.045
-199.137
-200.382
-201.997
-204.081
-206.33
-83.4853
0.0302249
0.0211981
0.0164393
0.0136392
0.00981721
0.00827017
0.0057143
0.00442407
0.00279169
0.00154559
0.000276141
29.0482
28.876
28.5702
28.1288
27.5295
26.747
25.7741
24.5926
23.182
21.517
19.5697
17.3021
14.6791
11.6672
8.20544
4.25753
-0.22638
-5.30097
-11.0129
-17.4133
-24.5453
-32.4477
-41.1494
-50.6696
-61.018
-72.2065
-84.2981
-97.3822
-111.339