/*--------------------------------*- C++ -*----------------------------------*\
| =========                 |                                                 |
| \\      /  F ield         | OpenFOAM: The Open Source CFD Toolbox           |
|  \\    /   O peration     | Version:  v2106                                 |
|   \\  /    A nd           | Website:  www.openfoam.com                      |
|    \\/     M anipulation  |                                                 |
\*---------------------------------------------------------------------------*/
FoamFile
{
    version     2.0;
    format      ascii;
    arch        "LSB;label=32;scalar=64";
    class       surfaceScalarField;
    location    "1.9";
    object      phi;
}
// * * * * * * * * * * * * * * * * * * * * * * * * * * * * * * * * * * * * * //

dimensions      [0 3 -1 0 0 0 0];

oriented        oriented;

internalField   nonuniform List<scalar> 
59425
(
4.79329e-08
-1.02222e-05
9.84457e-08
-1.0383e-05
1.51285e-07
-1.03244e-05
2.03184e-07
-1.02181e-05
2.56315e-07
-1.00706e-05
3.13619e-07
-9.87338e-06
3.7746e-07
-9.62349e-06
4.49854e-07
-9.31784e-06
5.34297e-07
-8.9505e-06
6.37539e-07
-8.51249e-06
7.738e-07
-7.99204e-06
9.74111e-07
-7.37532e-06
1.30102e-06
-6.6435e-06
1.86147e-06
-5.7554e-06
2.83261e-06
-4.62874e-06
4.54715e-06
-3.11886e-06
7.38225e-06
-1.12172e-06
9.17056e-06
-1.75984e-06
1.03311e-05
-2.93077e-06
1.11782e-05
-3.75179e-06
1.18415e-05
-4.39573e-06
1.24025e-05
-4.9008e-06
1.28902e-05
-5.31667e-06
1.33392e-05
-5.64733e-06
1.37415e-05
-5.93011e-06
1.41276e-05
-6.14932e-06
1.44635e-05
-6.3443e-06
1.47787e-05
-6.48671e-06
1.50686e-05
-6.5894e-06
1.53466e-05
-6.65114e-06
1.55999e-05
-6.69039e-06
1.58307e-05
-6.70272e-06
1.60424e-05
-6.68582e-06
1.6234e-05
-6.6448e-06
1.64083e-05
-6.58066e-06
1.65639e-05
-6.49797e-06
1.67023e-05
-6.39849e-06
1.68126e-05
-6.29184e-06
1.68883e-05
-6.17855e-06
1.69306e-05
-6.05377e-06
1.69368e-05
-5.92008e-06
1.69038e-05
-5.77928e-06
1.68351e-05
-5.62387e-06
1.67304e-05
-5.45108e-06
1.65834e-05
-5.26281e-06
1.64051e-05
-5.04286e-06
1.62039e-05
-4.78821e-06
1.59755e-05
-4.51053e-06
1.57183e-05
-4.20794e-06
1.54401e-05
-3.86644e-06
1.51532e-05
-3.47649e-06
1.48773e-05
-3.03042e-06
1.46665e-05
-2.51047e-06
1.46418e-05
-1.89845e-06
1.49375e-05
-1.0621e-06
1.57841e-05
8.86978e-08
1.62661e-05
-4.61773e-08
1.6309e-05
-5.99929e-07
1.61528e-05
-9.87652e-07
1.58639e-05
-1.29018e-06
1.5463e-05
-1.54166e-06
1.49503e-05
-1.75051e-06
1.43434e-05
-1.8813e-06
1.36671e-05
-1.90537e-06
1.29897e-05
-1.75355e-06
1.25923e-05
-1.20983e-06
1.28477e-05
-1.11226e-07
1.28539e-05
-2.39161e-07
1.26841e-05
-4.26508e-07
1.22171e-05
-7.5792e-07
1.18909e-05
-5.70729e-07
1.18567e-05
-1.991e-07
1.16632e-05
-3.76123e-07
1.12386e-05
-7.02271e-07
1.06976e-05
-8.86329e-07
1.01404e-05
-8.94081e-07
9.71335e-06
-6.69785e-07
9.76501e-06
2.10556e-08
9.79393e-06
5.71104e-08
9.67378e-06
-2.17485e-07
9.52859e-06
-3.56006e-07
8.87373e-06
-1.12237e-06
8.39544e-06
-1.04434e-06
8.01422e-06
-1.00268e-06
7.51168e-06
-1.14066e-06
7.07155e-06
-1.06065e-06
6.88606e-06
-5.31299e-07
6.57078e-06
-6.89237e-07
6.41538e-06
-4.25659e-07
6.26603e-06
-3.26253e-07
6.13938e-06
-2.96479e-07
6.14119e-06
-1.90921e-07
6.21609e-06
-1.26646e-07
6.34693e-06
-2.25733e-07
6.59284e-06
-5.13822e-07
7.1999e-06
-7.42106e-07
8.60749e-06
-1.53166e-06
1.05462e-05
-2.21109e-06
-2.81843e-05
-3.84951e-05
-3.97171e-05
-2.59001e-05
-3.68866e-05
-3.89065e-05
-3.28468e-05
-2.36803e-05
-3.0926e-05
-2.30796e-05
-2.8214e-05
-1.55904e-05
-2.71183e-05
-1.36499e-05
-2.54894e-05
-9.38946e-06
-2.45553e-05
-7.12656e-06
-2.32146e-05
-4.23527e-06
-2.25733e-05
-2.84581e-06
-1.12907e-06
8.14303e-08
-1.03037e-05
1.63535e-07
-1.04651e-05
2.48394e-07
-1.04093e-05
3.3565e-07
-1.03054e-05
4.29117e-07
-1.01641e-05
5.32058e-07
-9.97632e-06
6.47732e-07
-9.73917e-06
7.7986e-07
-9.44997e-06
9.33794e-07
-9.10443e-06
1.11741e-06
-8.69611e-06
1.34163e-06
-8.21626e-06
1.61944e-06
-7.65313e-06
1.9655e-06
-6.98956e-06
2.41691e-06
-6.2068e-06
3.10521e-06
-5.31704e-06
4.38125e-06
-4.39496e-06
6.86565e-06
-3.60617e-06
8.77591e-06
-3.67011e-06
1.00145e-05
-4.16933e-06
1.09331e-05
-4.67042e-06
1.16565e-05
-5.11908e-06
1.22637e-05
-5.50801e-06
1.27906e-05
-5.84362e-06
1.32672e-05
-6.12394e-06
1.36978e-05
-6.36071e-06
1.40997e-05
-6.55119e-06
1.44629e-05
-6.70753e-06
1.47995e-05
-6.82328e-06
1.51123e-05
-6.90218e-06
1.54077e-05
-6.94655e-06
1.568e-05
-6.96276e-06
1.59289e-05
-6.9516e-06
1.61565e-05
-6.91344e-06
1.63626e-05
-6.85091e-06
1.65481e-05
-6.76613e-06
1.67121e-05
-6.66199e-06
1.68544e-05
-6.54076e-06
1.69688e-05
-6.40621e-06
1.70505e-05
-6.26029e-06
1.70997e-05
-6.10294e-06
1.71158e-05
-5.93622e-06
1.70974e-05
-5.76082e-06
1.70452e-05
-5.57173e-06
1.69599e-05
-5.36573e-06
1.68381e-05
-5.14101e-06
1.66864e-05
-4.89123e-06
1.65132e-05
-4.61496e-06
1.6318e-05
-4.31533e-06
1.61007e-05
-3.99062e-06
1.58683e-05
-3.63406e-06
1.5631e-05
-3.23923e-06
1.54006e-05
-2.80002e-06
1.51981e-05
-2.3079e-06
1.50491e-05
-1.74947e-06
1.51433e-05
-1.15632e-06
1.58844e-05
-6.52374e-07
1.63656e-05
-5.27465e-07
1.64432e-05
-6.77496e-07
1.63226e-05
-8.67082e-07
1.60709e-05
-1.03846e-06
1.57118e-05
-1.18252e-06
1.52467e-05
-1.28541e-06
1.46892e-05
-1.32381e-06
1.40567e-05
-1.27291e-06
1.34047e-05
-1.10154e-06
1.2974e-05
-7.79164e-07
1.31581e-05
-2.95278e-07
1.31358e-05
-2.16818e-07
1.29543e-05
-2.45074e-07
1.2497e-05
-3.00586e-07
1.21573e-05
-2.31024e-07
1.2081e-05
-1.22835e-07
1.18889e-05
-1.84013e-07
1.14843e-05
-2.97666e-07
1.09624e-05
-3.64439e-07
1.04128e-05
-3.44481e-07
9.96722e-06
-2.24191e-07
9.97276e-06
1.55176e-08
9.98039e-06
4.94805e-08
9.83994e-06
-7.70395e-08
9.69054e-06
-2.06602e-07
9.08188e-06
-5.13709e-07
8.60793e-06
-5.70382e-07
8.20454e-06
-5.99285e-07
7.6721e-06
-6.0823e-07
7.17945e-06
-5.68006e-07
6.97234e-06
-3.24182e-07
6.62676e-06
-3.43658e-07
6.41166e-06
-2.10559e-07
6.21386e-06
-1.28457e-07
6.00672e-06
-8.93367e-08
5.87472e-06
-5.89221e-08
5.80296e-06
-5.48895e-08
5.73635e-06
-1.59121e-07
5.70489e-06
-4.82366e-07
5.90427e-06
-9.41477e-07
6.75924e-06
-2.38663e-06
8.27928e-06
-3.73114e-06
-2.22653e-05
-7.95048e-06
-3.38874e-05
-1.4278e-05
-3.03619e-05
-4.24321e-05
-2.67126e-05
-2.73296e-05
-2.57233e-05
-2.40689e-05
-2.39851e-05
-1.73286e-05
-2.34303e-05
-1.42047e-05
-2.23631e-05
-1.04567e-05
-2.17252e-05
-7.76444e-06
-2.07491e-05
-5.21138e-06
-2.03183e-05
-3.27658e-06
-1.49646e-06
1.16975e-07
-1.04206e-05
2.3618e-07
-1.05843e-05
3.60165e-07
-1.05332e-05
4.89305e-07
-1.04345e-05
6.26793e-07
-1.03016e-05
7.76709e-07
-1.01262e-05
9.43629e-07
-9.90609e-06
1.13278e-06
-9.63912e-06
1.35107e-06
-9.32271e-06
1.60825e-06
-8.95329e-06
1.91867e-06
-8.52668e-06
2.30476e-06
-8.03922e-06
2.80568e-06
-7.49049e-06
3.49023e-06
-6.89135e-06
4.43939e-06
-6.26625e-06
5.68733e-06
-5.64291e-06
7.19269e-06
-5.11152e-06
8.50645e-06
-4.98386e-06
9.56177e-06
-5.22464e-06
1.04366e-05
-5.54525e-06
1.11856e-05
-5.86809e-06
1.18432e-05
-6.16559e-06
1.24295e-05
-6.42992e-06
1.29617e-05
-6.65615e-06
1.34476e-05
-6.84657e-06
1.38963e-05
-6.99995e-06
1.43088e-05
-7.12004e-06
1.46907e-05
-7.20517e-06
1.50453e-05
-7.25673e-06
1.53754e-05
-7.27663e-06
1.56804e-05
-7.2678e-06
1.59605e-05
-7.23169e-06
1.62164e-05
-7.16938e-06
1.64483e-05
-7.08275e-06
1.6656e-05
-6.97381e-06
1.68387e-05
-6.84478e-06
1.69957e-05
-6.69771e-06
1.71244e-05
-6.53495e-06
1.72227e-05
-6.35851e-06
1.72893e-05
-6.16958e-06
1.73226e-05
-5.9695e-06
1.73205e-05
-5.7587e-06
1.72836e-05
-5.53481e-06
1.72132e-05
-5.29534e-06
1.71104e-05
-5.03826e-06
1.69799e-05
-4.76073e-06
1.68267e-05
-4.4617e-06
1.66534e-05
-4.14207e-06
1.6464e-05
-3.80123e-06
1.62664e-05
-3.43648e-06
1.60727e-05
-3.04549e-06
1.59004e-05
-2.62776e-06
1.5778e-05
-2.18549e-06
1.57588e-05
-1.73027e-06
1.58893e-05
-1.28678e-06
1.61169e-05
-8.79965e-07
1.62653e-05
-6.75863e-07
1.62573e-05
-6.6956e-07
1.61132e-05
-7.22932e-07
1.58694e-05
-7.94714e-07
1.55441e-05
-8.57137e-07
1.51515e-05
-8.92839e-07
1.47125e-05
-8.84845e-07
1.42557e-05
-8.16042e-07
1.38234e-05
-6.69324e-07
1.34806e-05
-4.36347e-07
1.33154e-05
-1.30065e-07
1.31274e-05
-2.883e-08
1.28876e-05
-5.1969e-09
1.25876e-05
-6.39726e-10
1.22999e-05
5.66542e-08
1.20575e-05
1.19551e-07
1.17757e-05
9.78488e-08
1.14348e-05
4.32595e-08
1.10597e-05
1.06359e-08
1.06867e-05
2.84998e-08
1.03619e-05
1.00631e-07
1.01551e-05
2.2227e-07
9.96364e-06
2.4097e-07
9.725e-06
1.616e-07
9.45478e-06
6.36162e-08
9.0536e-06
-1.12527e-07
8.64942e-06
-1.66207e-07
8.24522e-06
-1.95087e-07
7.83738e-06
-2.00389e-07
7.44338e-06
-1.7401e-07
7.15885e-06
-3.96465e-08
6.84773e-06
-3.2535e-08
6.59496e-06
4.2205e-08
6.37311e-06
9.33896e-08
6.16254e-06
1.21235e-07
5.9639e-06
1.39716e-07
5.77666e-06
1.32354e-07
5.53076e-06
8.67795e-08
5.15111e-06
-1.02713e-07
4.59509e-06
-3.85455e-07
3.61627e-06
-1.40782e-06
2.01422e-06
-2.12909e-06
-2.14467e-06
-3.79158e-06
-9.55774e-06
-6.86492e-06
-1.79546e-05
-3.40352e-05
-1.86311e-05
-2.66531e-05
-2.01248e-05
-2.25751e-05
-1.99078e-05
-1.75456e-05
-1.99467e-05
-1.41658e-05
-1.95983e-05
-1.0805e-05
-1.92985e-05
-8.06429e-06
-1.89112e-05
-5.59864e-06
-1.86493e-05
-3.5385e-06
-1.69125e-06
1.51289e-07
-1.05719e-05
3.05722e-07
-1.07387e-05
4.65841e-07
-1.06934e-05
6.33004e-07
-1.06017e-05
8.09976e-07
-1.04785e-05
1.00179e-06
-1.03181e-05
1.21366e-06
-1.0118e-05
1.45153e-06
-9.87699e-06
1.72281e-06
-9.59399e-06
2.03732e-06
-9.2678e-06
2.40837e-06
-8.89773e-06
2.85404e-06
-8.48488e-06
3.39785e-06
-8.03428e-06
4.06482e-06
-7.55829e-06
4.87726e-06
-7.0787e-06
5.86311e-06
-6.62874e-06
7.04112e-06
-6.28952e-06
8.23556e-06
-6.17828e-06
9.27692e-06
-6.266e-06
1.01729e-05
-6.4412e-06
1.09516e-05
-6.64683e-06
1.16399e-05
-6.85394e-06
1.22573e-05
-7.04731e-06
1.28191e-05
-7.21794e-06
1.33344e-05
-7.36187e-06
1.38109e-05
-7.47648e-06
1.42522e-05
-7.56129e-06
1.46623e-05
-7.6153e-06
1.50442e-05
-7.63863e-06
1.53998e-05
-7.63218e-06
1.57293e-05
-7.59737e-06
1.6033e-05
-7.53539e-06
1.63111e-05
-7.44743e-06
1.65634e-05
-7.33503e-06
1.67895e-05
-7.19993e-06
1.69887e-05
-7.04401e-06
1.71601e-05
-6.86912e-06
1.73024e-05
-6.6772e-06
1.7414e-05
-6.47011e-06
1.74937e-05
-6.24933e-06
1.75403e-05
-6.01607e-06
1.75525e-05
-5.77094e-06
1.75308e-05
-5.5131e-06
1.74766e-05
-5.24112e-06
1.7392e-05
-4.95368e-06
1.72808e-05
-4.64948e-06
1.71472e-05
-4.32811e-06
1.69953e-05
-3.99018e-06
1.68301e-05
-3.63602e-06
1.66589e-05
-3.26533e-06
1.6492e-05
-2.87852e-06
1.63421e-05
-2.47789e-06
1.62253e-05
-2.06867e-06
1.61567e-05
-1.66167e-06
1.61466e-05
-1.27668e-06
1.62123e-05
-9.45674e-07
1.62693e-05
-7.32829e-07
1.62292e-05
-6.29493e-07
1.60979e-05
-5.91611e-07
1.58809e-05
-5.77721e-07
1.55922e-05
-5.68435e-07
1.52416e-05
-5.42211e-07
1.48455e-05
-4.888e-07
1.44276e-05
-3.9807e-07
1.40217e-05
-2.6341e-07
1.3675e-05
-8.9696e-08
1.34543e-05
9.05978e-08
1.32289e-05
1.96649e-07
1.29646e-05
2.59036e-07
1.26591e-05
3.04918e-07
1.23642e-05
3.51572e-07
1.20968e-05
3.86943e-07
1.18016e-05
3.93027e-07
1.14602e-05
3.84702e-07
1.10898e-05
3.80938e-07
1.07241e-05
3.94233e-07
1.03986e-05
4.26189e-07
1.01566e-05
4.64215e-07
9.93635e-06
4.61231e-07
9.68249e-06
4.15459e-07
9.39405e-06
3.52053e-07
9.01239e-06
2.6914e-07
8.6273e-06
2.18877e-07
8.23946e-06
1.92751e-07
7.85034e-06
1.88731e-07
7.46934e-06
2.06993e-07
7.17168e-06
2.58014e-07
6.86305e-06
2.76092e-07
6.59243e-06
3.12823e-07
6.34125e-06
3.44565e-07
6.09731e-06
3.65176e-07
5.85724e-06
3.79788e-07
5.61639e-06
3.73207e-07
5.34928e-06
3.53887e-07
5.02999e-06
2.16579e-07
4.58391e-06
6.06273e-08
3.85275e-06
-6.76669e-07
2.54563e-06
-8.21962e-07
-1.67929e-06
4.33335e-07
-6.5072e-06
-2.037e-06
-1.2286e-05
-2.82564e-05
-1.39221e-05
-2.5017e-05
-1.5616e-05
-2.08813e-05
-1.618e-05
-1.69815e-05
-1.66404e-05
-1.37054e-05
-1.67392e-05
-1.07063e-05
-1.67243e-05
-8.07923e-06
-1.66006e-05
-5.72233e-06
-1.64975e-05
-3.64155e-06
-1.77278e-06
1.83041e-07
-1.0755e-05
3.69663e-07
-1.09253e-05
5.62325e-07
-1.0886e-05
7.63894e-07
-1.08032e-05
9.76715e-07
-1.06913e-05
1.20581e-06
-1.05471e-05
1.45669e-06
-1.03688e-05
1.73546e-06
-1.01558e-05
2.04934e-06
-9.90788e-06
2.40725e-06
-9.62571e-06
2.82035e-06
-9.31084e-06
3.30236e-06
-8.96688e-06
3.86915e-06
-8.60106e-06
4.53695e-06
-8.22607e-06
5.32025e-06
-7.862e-06
6.2298e-06
-7.53829e-06
7.23854e-06
-7.29825e-06
8.24293e-06
-7.18267e-06
9.16664e-06
-7.18971e-06
1.00017e-05
-7.27629e-06
1.07577e-05
-7.40285e-06
1.14466e-05
-7.54277e-06
1.20786e-05
-7.67932e-06
1.26625e-05
-7.80189e-06
1.32048e-05
-7.90412e-06
1.37103e-05
-7.98199e-06
1.41823e-05
-8.03326e-06
1.46234e-05
-8.05644e-06
1.50357e-05
-8.05092e-06
1.54204e-05
-8.01684e-06
1.57778e-05
-7.95483e-06
1.61082e-05
-7.86573e-06
1.64113e-05
-7.75057e-06
1.66869e-05
-7.61064e-06
1.69345e-05
-7.44747e-06
1.71532e-05
-7.26273e-06
1.73422e-05
-7.05816e-06
1.75006e-05
-6.83558e-06
1.76273e-05
-6.59678e-06
1.77213e-05
-6.34337e-06
1.77819e-05
-6.07669e-06
1.78086e-05
-5.79765e-06
1.78019e-05
-5.50633e-06
1.7763e-05
-5.20229e-06
1.76944e-05
-4.88506e-06
1.75993e-05
-4.55433e-06
1.74815e-05
-4.21036e-06
1.73454e-05
-3.85402e-06
1.71957e-05
-3.48639e-06
1.7039e-05
-3.10863e-06
1.68832e-05
-2.72272e-06
1.67377e-05
-2.33233e-06
1.66127e-05
-1.94366e-06
1.65178e-05
-1.5668e-06
1.6458e-05
-1.21689e-06
1.64257e-05
-9.13348e-07
1.63717e-05
-6.78822e-07
1.62636e-05
-5.21335e-07
1.60923e-05
-4.20328e-07
1.58596e-05
-3.45023e-07
1.557e-05
-2.7887e-07
1.5239e-05
-2.11193e-07
1.48817e-05
-1.31534e-07
1.45167e-05
-3.29998e-08
1.41616e-05
9.16857e-08
1.38379e-05
2.33959e-07
1.35538e-05
3.7475e-07
1.32727e-05
4.77758e-07
1.2982e-05
5.49647e-07
1.2682e-05
6.04977e-07
1.23808e-05
6.52726e-07
1.20789e-05
6.88835e-07
1.1766e-05
7.05943e-07
1.14402e-05
7.10566e-07
1.11074e-05
7.1373e-07
1.07787e-05
7.22901e-07
1.04664e-05
7.38486e-07
1.01776e-05
7.53011e-07
9.89251e-06
7.46335e-07
9.59342e-06
7.14543e-07
9.27757e-06
6.67901e-07
8.93585e-06
6.10861e-07
8.5852e-06
5.69533e-07
8.23427e-06
5.43675e-07
7.88983e-06
5.33176e-07
7.55937e-06
5.37446e-07
7.25701e-06
5.60376e-07
6.96035e-06
5.72751e-07
6.68204e-06
5.9113e-07
6.41706e-06
6.09542e-07
6.15665e-06
6.25584e-07
5.8924e-06
6.44038e-07
5.60866e-06
6.56948e-07
5.27452e-06
6.88032e-07
4.85321e-06
6.3788e-07
4.28235e-06
6.31487e-07
3.49866e-06
1.07026e-07
2.35625e-06
3.20445e-07
5.215e-07
2.26809e-06
-2.48511e-06
9.69616e-07
-7.50117e-06
-2.32403e-05
-9.7011e-06
-2.2817e-05
-1.17126e-05
-1.88698e-05
-1.27983e-05
-1.58958e-05
-1.36126e-05
-1.28911e-05
-1.40754e-05
-1.02434e-05
-1.43365e-05
-7.81807e-06
-1.44557e-05
-5.60317e-06
-1.45012e-05
-3.59606e-06
-1.76872e-06
2.11648e-07
-1.09666e-05
4.27154e-07
-1.11408e-05
6.49225e-07
-1.11081e-05
8.81291e-07
-1.10353e-05
1.12583e-06
-1.09359e-05
1.38747e-06
-1.08088e-05
1.67156e-06
-1.06529e-05
1.98396e-06
-1.04682e-05
2.3313e-06
-1.02552e-05
2.72122e-06
-1.00156e-05
3.16259e-06
-9.75222e-06
3.66527e-06
-9.46957e-06
4.23935e-06
-9.17513e-06
4.89348e-06
-8.88019e-06
5.63214e-06
-8.60065e-06
6.45103e-06
-8.35718e-06
7.32666e-06
-8.17388e-06
8.21344e-06
-8.06946e-06
9.06755e-06
-8.04383e-06
9.86985e-06
-8.07859e-06
1.06171e-05
-8.15011e-06
1.13122e-05
-8.23787e-06
1.19598e-05
-8.32693e-06
1.25648e-05
-8.40692e-06
1.31315e-05
-8.47081e-06
1.36634e-05
-8.51381e-06
1.41629e-05
-8.53276e-06
1.4632e-05
-8.52558e-06
1.50721e-05
-8.49106e-06
1.5484e-05
-8.42874e-06
1.58679e-05
-8.33873e-06
1.62237e-05
-8.2215e-06
1.6551e-05
-8.07787e-06
1.68493e-05
-7.90895e-06
1.71179e-05
-7.7161e-06
1.73561e-05
-7.5009e-06
1.7563e-05
-7.26504e-06
1.77377e-05
-7.01033e-06
1.78796e-05
-6.73861e-06
1.79878e-05
-6.4516e-06
1.8062e-05
-6.15087e-06
1.8102e-05
-5.83764e-06
1.81083e-05
-5.51271e-06
1.80825e-05
-5.17647e-06
1.80267e-05
-4.82924e-06
1.79439e-05
-4.4715e-06
1.78376e-05
-4.10408e-06
1.77119e-05
-3.72832e-06
1.75714e-05
-3.34586e-06
1.74215e-05
-2.95873e-06
1.72684e-05
-2.5697e-06
1.7119e-05
-2.18286e-06
1.69794e-05
-1.80408e-06
1.6854e-05
-1.44144e-06
1.67426e-05
-1.1054e-06
1.66373e-05
-8.08063e-07
1.65197e-05
-5.61221e-07
1.63673e-05
-3.69008e-07
1.61695e-05
-2.22472e-07
1.59278e-05
-1.03316e-07
1.56477e-05
1.19764e-09
1.53331e-05
1.03408e-07
1.49945e-05
2.07131e-07
1.46421e-05
3.19393e-07
1.42936e-05
4.40194e-07
1.39623e-05
5.65209e-07
1.36539e-05
6.8313e-07
1.33516e-05
7.80093e-07
1.30449e-05
8.56343e-07
1.27325e-05
9.17352e-07
1.24187e-05
9.6653e-07
1.21043e-05
1.00329e-06
1.17834e-05
1.02684e-06
1.14535e-05
1.04047e-06
1.11183e-05
1.04892e-06
1.07857e-05
1.05549e-06
1.04639e-05
1.06028e-06
1.01572e-05
1.05967e-06
9.85689e-06
1.04667e-06
9.55161e-06
1.01982e-06
9.23548e-06
9.84034e-07
8.90185e-06
9.44488e-07
8.56055e-06
9.10826e-07
8.21828e-06
8.85949e-07
7.88095e-06
8.70498e-07
7.55477e-06
8.63628e-07
7.25042e-06
8.64723e-07
6.9567e-06
8.66476e-07
6.67482e-06
8.73006e-07
6.4012e-06
8.83159e-07
6.13083e-06
8.95954e-07
5.86055e-06
9.1432e-07
5.58325e-06
9.34248e-07
5.28525e-06
9.86025e-07
4.94447e-06
9.78668e-07
4.53174e-06
1.04421e-06
3.91849e-06
7.20275e-07
3.03864e-06
1.20029e-06
1.93957e-06
3.36716e-06
6.28122e-07
2.28107e-06
-3.7657e-06
-1.88465e-05
-6.42268e-06
-2.016e-05
-8.44304e-06
-1.68494e-05
-9.84357e-06
-1.44953e-05
-1.09088e-05
-1.18258e-05
-1.16106e-05
-9.54164e-06
-1.20672e-05
-7.3615e-06
-1.23414e-05
-5.32893e-06
-1.24919e-05
-3.44556e-06
-1.70064e-06
2.3699e-07
-1.12036e-05
4.78001e-07
-1.13818e-05
7.26111e-07
-1.13562e-05
9.84686e-07
-1.12939e-05
1.25654e-06
-1.12077e-05
1.54589e-06
-1.10981e-05
1.85762e-06
-1.09646e-05
2.1971e-06
-1.08076e-05
2.57019e-06
-1.06283e-05
2.98326e-06
-1.04287e-05
3.44313e-06
-1.02121e-05
3.95669e-06
-9.98314e-06
4.5301e-06
-9.74855e-06
5.16743e-06
-9.51753e-06
5.86867e-06
-9.30189e-06
6.62695e-06
-9.11546e-06
7.42518e-06
-8.97212e-06
8.23706e-06
-8.88134e-06
9.03648e-06
-8.84325e-06
9.80621e-06
-8.84832e-06
1.05384e-05
-8.88232e-06
1.12314e-05
-8.9309e-06
1.18865e-05
-8.98198e-06
1.25058e-05
-9.02621e-06
1.30916e-05
-9.05663e-06
1.36459e-05
-9.06812e-06
1.41702e-05
-9.05706e-06
1.46656e-05
-9.02091e-06
1.51325e-05
-8.95804e-06
1.55714e-05
-8.86756e-06
1.59818e-05
-8.74919e-06
1.63635e-05
-8.60315e-06
1.67156e-05
-8.43005e-06
1.70376e-05
-8.23087e-06
1.73284e-05
-8.0069e-06
1.75871e-05
-7.75967e-06
1.7813e-05
-7.49091e-06
1.80052e-05
-7.2025e-06
1.81629e-05
-6.89638e-06
1.82858e-05
-6.57446e-06
1.83735e-05
-6.23857e-06
1.84262e-05
-5.89032e-06
1.84445e-05
-5.53105e-06
1.84299e-05
-5.16185e-06
1.83844e-05
-4.78376e-06
1.83108e-05
-4.3979e-06
1.82124e-05
-4.00566e-06
1.80929e-05
-3.60878e-06
1.79563e-05
-3.20934e-06
1.78074e-05
-2.80982e-06
1.7651e-05
-2.4133e-06
1.74919e-05
-2.02377e-06
1.73342e-05
-1.64635e-06
1.71801e-05
-1.28734e-06
1.70289e-05
-9.54144e-07
1.68753e-05
-6.54532e-07
1.67092e-05
-3.95062e-07
1.65179e-05
-1.77786e-07
1.62931e-05
2.40918e-09
1.60336e-05
1.56113e-07
1.57423e-05
2.92496e-07
1.54265e-05
4.19234e-07
1.50925e-05
5.41141e-07
1.47499e-05
6.62046e-07
1.44073e-05
7.82795e-07
1.40719e-05
9.00561e-07
1.37457e-05
1.00933e-06
1.3423e-05
1.1028e-06
1.30995e-05
1.17987e-06
1.27743e-05
1.24257e-06
1.24481e-05
1.2927e-06
1.21206e-05
1.33073e-06
1.17904e-05
1.35705e-06
1.14574e-05
1.37354e-06
1.11234e-05
1.38288e-06
1.07918e-05
1.38709e-06
1.04656e-05
1.38653e-06
1.01456e-05
1.37964e-06
9.82838e-06
1.36388e-06
9.5092e-06
1.339e-06
9.18553e-06
1.3077e-06
8.85645e-06
1.27357e-06
8.52574e-06
1.24153e-06
8.19755e-06
1.21413e-06
7.87568e-06
1.19237e-06
7.56318e-06
1.17613e-06
7.26287e-06
1.16503e-06
6.97255e-06
1.1568e-06
6.69295e-06
1.1526e-06
6.42304e-06
1.15307e-06
6.15834e-06
1.16065e-06
5.89502e-06
1.17764e-06
5.62679e-06
1.20248e-06
5.34683e-06
1.26598e-06
5.03653e-06
1.28896e-06
4.70433e-06
1.37641e-06
4.27523e-06
1.14938e-06
3.81903e-06
1.65649e-06
3.59935e-06
3.58684e-06
3.39033e-06
2.49009e-06
-6.42866e-07
-1.48133e-05
-3.66889e-06
-1.7134e-05
-5.67921e-06
-1.48391e-05
-7.30251e-06
-1.2872e-05
-8.52454e-06
-1.06038e-05
-9.39073e-06
-8.67544e-06
-9.99257e-06
-6.75966e-06
-1.03829e-05
-4.93857e-06
-1.06123e-05
-3.21622e-06
-1.59429e-06
2.58994e-07
-1.14626e-05
5.22083e-07
-1.16449e-05
7.92609e-07
-1.16267e-05
1.07378e-06
-1.15751e-05
1.36861e-06
-1.15026e-05
1.68093e-06
-1.14105e-05
2.01511e-06
-1.12988e-05
2.37594e-06
-1.11685e-05
2.76848e-06
-1.10208e-05
3.198e-06
-1.08582e-05
3.66971e-06
-1.06838e-05
4.18838e-06
-1.05018e-05
4.75764e-06
-1.03178e-05
5.379e-06
-1.01389e-05
6.05061e-06
-9.97351e-06
6.76582e-06
-9.83068e-06
7.5123e-06
-9.7186e-06
8.27328e-06
-9.64232e-06
9.03166e-06
-9.60163e-06
9.7742e-06
-9.59086e-06
1.04928e-05
-9.60091e-06
1.11836e-05
-9.62166e-06
1.18452e-05
-9.64364e-06
1.24778e-05
-9.65882e-06
1.30819e-05
-9.66072e-06
1.36581e-05
-9.64431e-06
1.42068e-05
-9.60576e-06
1.47282e-05
-9.5423e-06
1.52221e-05
-9.45199e-06
1.56883e-05
-9.33368e-06
1.61259e-05
-9.18681e-06
1.65341e-05
-9.0114e-06
1.6912e-05
-8.80793e-06
1.72584e-05
-8.5773e-06
1.75723e-05
-8.32077e-06
1.78526e-05
-8.03991e-06
1.80982e-05
-7.73654e-06
1.83084e-05
-7.41267e-06
1.84824e-05
-7.07042e-06
1.86199e-05
-6.71195e-06
1.87207e-05
-6.33938e-06
1.87851e-05
-5.95472e-06
1.88138e-05
-5.55981e-06
1.88083e-05
-5.15635e-06
1.87706e-05
-4.74599e-06
1.87031e-05
-4.33041e-06
1.86089e-05
-3.91148e-06
1.84915e-05
-3.49132e-06
1.83544e-05
-3.07231e-06
1.82017e-05
-2.65714e-06
1.80374e-05
-2.24897e-06
1.78651e-05
-1.85147e-06
1.76878e-05
-1.469e-06
1.75069e-05
-1.10648e-06
1.7322e-05
-7.69199e-07
1.71297e-05
-4.62234e-07
1.69241e-05
-1.89445e-07
1.66982e-05
4.80526e-08
1.6447e-05
2.53668e-07
1.61697e-05
4.33418e-07
1.58685e-05
5.93669e-07
1.55477e-05
7.40056e-07
1.52122e-05
8.76656e-07
1.4868e-05
1.00616e-06
1.45215e-05
1.12932e-06
1.41773e-05
1.24475e-06
1.38371e-05
1.34953e-06
1.34992e-05
1.44073e-06
1.31616e-05
1.51746e-06
1.28237e-05
1.58047e-06
1.24856e-05
1.6308e-06
1.21472e-05
1.66915e-06
1.1808e-05
1.69629e-06
1.1468e-05
1.71353e-06
1.11283e-05
1.72253e-06
1.07908e-05
1.72458e-06
1.04572e-05
1.72015e-06
1.0128e-05
1.7089e-06
9.8016e-06
1.69025e-06
9.47591e-06
1.66469e-06
9.14951e-06
1.6341e-06
8.82212e-06
1.60096e-06
8.49565e-06
1.56799e-06
8.1728e-06
1.53698e-06
7.85638e-06
1.50879e-06
7.54881e-06
1.4837e-06
7.252e-06
1.46183e-06
6.96564e-06
1.44316e-06
6.68957e-06
1.42868e-06
6.42342e-06
1.41921e-06
6.166e-06
1.41807e-06
5.91585e-06
1.42779e-06
5.67088e-06
1.44745e-06
5.43374e-06
1.50312e-06
5.1896e-06
1.5331e-06
4.96804e-06
1.59797e-06
4.6808e-06
1.43662e-06
4.51357e-06
1.82373e-06
4.90595e-06
3.19445e-06
5.09271e-06
2.30333e-06
1.72832e-06
-1.14489e-05
-1.3879e-06
-1.40178e-05
-3.43481e-06
-1.27922e-05
-5.17061e-06
-1.11362e-05
-6.46575e-06
-9.30867e-06
-7.43075e-06
-7.71044e-06
-8.12436e-06
-6.06605e-06
-8.58917e-06
-4.47376e-06
-8.86873e-06
-2.93666e-06
-1.46456e-06
2.77621e-07
-1.17402e-05
5.59324e-07
-1.19266e-05
8.48618e-07
-1.1916e-05
1.14856e-06
-1.1875e-05
1.46219e-06
-1.18162e-05
1.79301e-06
-1.17413e-05
2.14491e-06
-1.16507e-05
2.52212e-06
-1.15457e-05
2.92905e-06
-1.14278e-05
3.37006e-06
-1.12992e-05
3.84918e-06
-1.11629e-05
4.36973e-06
-1.10224e-05
4.9338e-06
-1.08819e-05
5.54159e-06
-1.07467e-05
6.19068e-06
-1.06226e-05
6.87539e-06
-1.05154e-05
7.5867e-06
-1.04299e-05
8.31313e-06
-1.03687e-05
9.04283e-06
-1.03313e-05
9.76569e-06
-1.03137e-05
1.04744e-05
-1.03096e-05
1.11643e-05
-1.03116e-05
1.18328e-05
-1.03121e-05
1.24784e-05
-1.03044e-05
1.31003e-05
-1.02827e-05
1.36981e-05
-1.02421e-05
1.42711e-05
-1.01788e-05
1.48187e-05
-1.00899e-05
1.53401e-05
-9.9734e-06
1.58343e-05
-9.82783e-06
1.63e-05
-9.6525e-06
1.67359e-05
-9.44731e-06
1.71406e-05
-9.21264e-06
1.75126e-05
-8.94937e-06
1.78507e-05
-8.65881e-06
1.81534e-05
-8.34262e-06
1.84196e-05
-8.00277e-06
1.86484e-05
-7.64145e-06
1.8839e-05
-7.26105e-06
1.89911e-05
-6.86402e-06
1.91046e-05
-6.45282e-06
1.91797e-05
-6.02988e-06
1.92174e-05
-5.59752e-06
1.92191e-05
-5.15799e-06
1.91866e-05
-4.71346e-06
1.91223e-05
-4.26613e-06
1.90291e-05
-3.81829e-06
1.89102e-05
-3.37237e-06
1.87688e-05
-2.93099e-06
1.86087e-05
-2.49695e-06
1.8433e-05
-2.07333e-06
1.8245e-05
-1.66349e-06
1.80471e-05
-1.2711e-06
1.78407e-05
-9.00025e-07
1.76256e-05
-5.54117e-07
1.74001e-05
-2.36755e-07
1.71608e-05
4.99081e-08
1.69045e-05
3.04401e-07
1.66281e-05
5.30028e-07
1.63313e-05
7.30255e-07
1.60155e-05
9.09433e-07
1.56839e-05
1.07164e-06
1.53404e-05
1.22018e-06
1.49893e-05
1.35724e-06
1.46349e-05
1.48372e-06
1.42804e-05
1.59924e-06
1.39274e-05
1.70257e-06
1.35757e-05
1.79246e-06
1.32246e-05
1.86848e-06
1.28741e-05
1.93101e-06
1.25241e-05
1.98079e-06
1.21747e-05
2.01855e-06
1.18259e-05
2.04513e-06
1.14778e-05
2.06158e-06
1.11312e-05
2.0691e-06
1.07872e-05
2.06867e-06
1.04464e-05
2.06088e-06
1.01093e-05
2.04599e-06
9.77534e-06
2.02424e-06
9.44355e-06
1.99648e-06
9.11349e-06
1.96416e-06
8.78543e-06
1.92903e-06
8.46065e-06
1.89277e-06
8.14102e-06
1.85661e-06
7.82851e-06
1.8213e-06
7.52487e-06
1.78733e-06
7.23149e-06
1.7552e-06
6.94904e-06
1.7256e-06
6.67791e-06
1.6998e-06
6.41848e-06
1.67864e-06
6.17098e-06
1.66557e-06
5.93568e-06
1.66309e-06
5.71234e-06
1.67078e-06
5.50814e-06
1.70732e-06
5.31893e-06
1.72231e-06
5.17627e-06
1.74063e-06
5.0003e-06
1.61258e-06
5.01458e-06
1.80945e-06
5.73999e-06
2.46905e-06
6.10596e-06
1.93736e-06
3.24753e-06
-8.59048e-06
2.97841e-07
-1.10681e-05
-1.70098e-06
-1.07934e-05
-3.43709e-06
-9.40011e-06
-4.73608e-06
-8.00967e-06
-5.74346e-06
-6.70307e-06
-6.48245e-06
-5.32706e-06
-6.98757e-06
-3.96864e-06
-7.29387e-06
-2.63035e-06
-1.32444e-06
2.92857e-07
-1.20331e-05
5.89722e-07
-1.22235e-05
8.94188e-07
-1.22205e-05
1.20918e-06
-1.219e-05
1.53767e-06
-1.21447e-05
1.88283e-06
-1.20864e-05
2.24819e-06
-1.20161e-05
2.63753e-06
-1.1935e-05
3.05477e-06
-1.1845e-05
3.50361e-06
-1.17481e-05
3.98722e-06
-1.16465e-05
4.50795e-06
-1.15431e-05
5.06698e-06
-1.14409e-05
5.6639e-06
-1.13436e-05
6.29631e-06
-1.1255e-05
6.95961e-06
-1.11787e-05
7.64706e-06
-1.11174e-05
8.35041e-06
-1.10721e-05
9.06106e-06
-1.1042e-05
9.77116e-06
-1.10238e-05
1.04744e-05
-1.10128e-05
1.1166e-05
-1.10032e-05
1.18428e-05
-1.09888e-05
1.25023e-05
-1.09639e-05
1.31427e-05
-1.09231e-05
1.37627e-05
-1.0862e-05
1.43608e-05
-1.07769e-05
1.49356e-05
-1.06647e-05
1.54855e-05
-1.05233e-05
1.6009e-05
-1.03512e-05
1.65041e-05
-1.01476e-05
1.69691e-05
-9.91228e-06
1.7402e-05
-9.6456e-06
1.78011e-05
-9.34848e-06
1.81646e-05
-9.02232e-06
1.8491e-05
-8.66894e-06
1.87787e-05
-8.29051e-06
1.90268e-05
-7.88951e-06
1.92343e-05
-7.46861e-06
1.94009e-05
-7.03063e-06
1.95265e-05
-6.57843e-06
1.96115e-05
-6.11487e-06
1.96568e-05
-5.64277e-06
1.96637e-05
-5.16487e-06
1.9634e-05
-4.68383e-06
1.95702e-05
-4.20234e-06
1.9475e-05
-3.72304e-06
1.93513e-05
-3.24868e-06
1.92024e-05
-2.78205e-06
1.90314e-05
-2.326e-06
1.88416e-05
-1.88351e-06
1.86358e-05
-1.45765e-06
1.84162e-05
-1.05152e-06
1.81844e-05
-6.68209e-07
1.79409e-05
-3.106e-07
1.76846e-05
1.94739e-08
1.74155e-05
3.19065e-07
1.71307e-05
5.89225e-07
1.68293e-05
8.31435e-07
1.65114e-05
1.04815e-06
1.61784e-05
1.24244e-06
1.58326e-05
1.41739e-06
1.54771e-05
1.5757e-06
1.51151e-05
1.71927e-06
1.47496e-05
1.84918e-06
1.43831e-05
1.96572e-06
1.40171e-05
2.06864e-06
1.36519e-05
2.15761e-06
1.32878e-05
2.23263e-06
1.29247e-05
2.2941e-06
1.25628e-05
2.34265e-06
1.22024e-05
2.379e-06
1.18435e-05
2.40399e-06
1.14865e-05
2.41856e-06
1.1132e-05
2.4237e-06
1.07804e-05
2.42027e-06
1.04323e-05
2.40897e-06
1.00879e-05
2.39032e-06
9.74723e-06
2.36495e-06
9.40993e-06
2.33378e-06
9.07607e-06
2.29801e-06
8.74616e-06
2.25894e-06
8.42124e-06
2.21769e-06
8.10271e-06
2.17515e-06
7.79205e-06
2.13195e-06
7.49072e-06
2.08867e-06
7.19999e-06
2.04594e-06
6.92096e-06
2.00463e-06
6.65453e-06
1.96623e-06
6.40173e-06
1.93143e-06
6.16397e-06
1.90333e-06
5.94291e-06
1.88414e-06
5.7404e-06
1.87329e-06
5.5667e-06
1.88102e-06
5.41861e-06
1.87039e-06
5.31901e-06
1.84023e-06
5.21548e-06
1.71611e-06
5.30452e-06
1.72041e-06
6.06363e-06
1.70993e-06
6.48558e-06
1.51541e-06
4.02768e-06
-6.13259e-06
1.4815e-06
-8.52193e-06
-4.26738e-07
-8.88513e-06
-2.07823e-06
-7.74861e-06
-3.32629e-06
-6.76162e-06
-4.32664e-06
-5.70272e-06
-5.07003e-06
-4.58367e-06
-5.58677e-06
-3.4519e-06
-5.90139e-06
-2.31574e-06
-1.18325e-06
3.04715e-07
-1.23378e-05
6.13318e-07
-1.25321e-05
9.29448e-07
-1.25366e-05
1.25591e-06
-1.25165e-05
1.59551e-06
-1.24843e-05
1.95118e-06
-1.24421e-05
2.32616e-06
-1.23911e-05
2.72402e-06
-1.23329e-05
3.1483e-06
-1.22693e-05
3.60221e-06
-1.2202e-05
4.08831e-06
-1.21326e-05
4.60832e-06
-1.20631e-05
5.16289e-06
-1.19955e-05
5.75142e-06
-1.19321e-05
6.37182e-06
-1.18754e-05
7.02042e-06
-1.18273e-05
7.69213e-06
-1.17891e-05
8.38084e-06
-1.17608e-05
9.08002e-06
-1.17412e-05
9.78348e-06
-1.17273e-05
1.04858e-05
-1.17151e-05
1.11824e-05
-1.16999e-05
1.18698e-05
-1.16762e-05
1.2545e-05
-1.16391e-05
1.32056e-05
-1.15837e-05
1.38493e-05
-1.15058e-05
1.4474e-05
-1.14016e-05
1.50775e-05
-1.12683e-05
1.56577e-05
-1.11035e-05
1.62122e-05
-1.09057e-05
1.67387e-05
-1.06741e-05
1.72346e-05
-1.04082e-05
1.76977e-05
-1.01087e-05
1.81256e-05
-9.77638e-06
1.85162e-05
-9.41289e-06
1.88675e-05
-9.02023e-06
1.91778e-05
-8.60086e-06
1.94459e-05
-8.15759e-06
1.96708e-05
-7.69347e-06
1.98519e-05
-7.21174e-06
1.99892e-05
-6.71572e-06
2.0083e-05
-6.20873e-06
2.01344e-05
-5.69411e-06
2.01446e-05
-5.17507e-06
2.01155e-05
-4.65479e-06
2.00495e-05
-4.13636e-06
1.99493e-05
-3.62281e-06
1.98178e-05
-3.11715e-06
1.96581e-05
-2.62233e-06
1.94734e-05
-2.14127e-06
1.92667e-05
-1.67684e-06
1.90409e-05
-1.23183e-06
1.87983e-05
-8.0893e-07
1.85407e-05
-4.10629e-07
1.82691e-05
-3.89997e-08
1.79844e-05
3.0416e-07
1.7686e-05
6.17458e-07
1.73735e-05
9.01777e-07
1.70468e-05
1.15814e-06
1.67065e-05
1.38843e-06
1.6354e-05
1.59492e-06
1.59913e-05
1.78013e-06
1.56207e-05
1.94633e-06
1.52447e-05
2.09527e-06
1.48657e-05
2.22819e-06
1.44856e-05
2.34578e-06
1.41058e-05
2.44843e-06
1.37271e-05
2.53638e-06
1.33497e-05
2.61e-06
1.2974e-05
2.6698e-06
1.26002e-05
2.71642e-06
1.22286e-05
2.75061e-06
1.18594e-05
2.77317e-06
1.1493e-05
2.78498e-06
1.11298e-05
2.78695e-06
1.07701e-05
2.77991e-06
1.04145e-05
2.76462e-06
1.0063e-05
2.74176e-06
9.71591e-06
2.71208e-06
9.37319e-06
2.6765e-06
9.03518e-06
2.63603e-06
8.70246e-06
2.59165e-06
8.37596e-06
2.54418e-06
8.05683e-06
2.49428e-06
7.74631e-06
2.44246e-06
7.44572e-06
2.38925e-06
7.15636e-06
2.33529e-06
6.8796e-06