/*--------------------------------*- C++ -*----------------------------------*\
| =========                 |                                                 |
| \\      /  F ield         | OpenFOAM: The Open Source CFD Toolbox           |
|  \\    /   O peration     | Version:  v2106                                 |
|   \\  /    A nd           | Website:  www.openfoam.com                      |
|    \\/     M anipulation  |                                                 |
\*---------------------------------------------------------------------------*/
FoamFile
{
    version     2.0;
    format      ascii;
    arch        "LSB;label=32;scalar=64";
    class       volVectorField;
    location    "1.9";
    object      U;
}
// * * * * * * * * * * * * * * * * * * * * * * * * * * * * * * * * * * * * * //

dimensions      [0 1 -1 0 0 0 0];

internalField   nonuniform List<vector> 
29678
(
(-0.0847866 -4.02623e-24 0.000195286)
(-0.0861046 9.08736e-22 0.000598991)
(-0.0855973 2.29984e-20 0.00104101)
(-0.0847195 1.72251e-19 0.00148671)
(-0.0834799 2.73698e-19 0.00190275)
(-0.0818017 2.93768e-19 0.00236577)
(-0.0796649 2.89539e-19 0.00286848)
(-0.0770467 4.16744e-19 0.0034326)
(-0.0738855 -6.39428e-19 0.00408125)
(-0.0700796 1.59223e-19 0.00485354)
(-0.0654693 -5.06501e-19 0.00582886)
(-0.0598012 2.98043e-19 0.00717603)
(-0.0526606 -5.19871e-19 0.00925288)
(-0.0433445 1.21804e-19 0.0127343)
(-0.0305972 -3.99577e-19 0.0187686)
(-0.0119395 1.66804e-19 0.0290714)
(0.014051 -4.22303e-19 0.0485933)
(0.000372023 -3.21081e-19 0.070068)
(-0.0146976 4.25836e-20 0.0833031)
(-0.0241778 -3.87481e-19 0.0907957)
(-0.0310909 -4.69675e-19 0.0965957)
(-0.0361597 -2.84451e-19 0.101475)
(-0.0402409 -2.816e-19 0.105709)
(-0.0433212 -6.4185e-20 0.109528)
(-0.0460669 -2.40327e-19 0.113012)
(-0.0480296 3.37694e-19 0.11626)
(-0.0500732 6.41552e-19 0.119254)
(-0.0514331 -4.21084e-19 0.121935)
(-0.0524989 -1.19156e-18 0.124429)
(-0.0531135 -7.21384e-19 0.126785)
(-0.0536464 -2.13826e-19 0.129001)
(-0.0539361 -2.75262e-19 0.131015)
(-0.0539543 -1.63369e-19 0.132851)
(-0.0537791 1.17139e-18 0.134527)
(-0.0533896 4.82166e-19 0.136049)
(-0.0528551 3.72868e-19 0.137421)
(-0.05217 2.82016e-19 0.138652)
(-0.0515142 -3.00594e-19 0.139705)
(-0.0508578 7.62233e-19 0.140492)
(-0.0500955 3.71127e-19 0.140984)
(-0.0492808 1.49103e-19 0.141186)
(-0.0484335 2.58003e-19 0.141078)
(-0.0474353 -1.84723e-20 0.140653)
(-0.0462935 1.78701e-19 0.139932)
(-0.0450764 -8.62892e-19 0.138888)
(-0.0435046 6.31222e-20 0.137519)
(-0.0415725 6.81054e-19 0.135921)
(-0.0394838 1.87282e-19 0.134135)
(-0.0372024 2.12973e-19 0.132121)
(-0.0345312 9.46362e-20 0.129886)
(-0.0313557 5.46571e-19 0.12752)
(-0.0275516 2.32304e-19 0.125157)
(-0.022685 -2.40201e-19 0.123075)
(-0.0160591 -4.29748e-19 0.121967)
(-0.00647015 7.52189e-20 0.122909)
(0.00767759 1.18822e-19 0.127572)
(0.0037346 8.33577e-20 0.133094)
(-0.00459102 2.00954e-20 0.13651)
(-0.00950088 3.21988e-19 0.136025)
(-0.0131339 1.22929e-19 0.133984)
(-0.0161638 -6.78221e-20 0.130976)
(-0.0188369 8.41986e-20 0.127088)
(-0.0207116 -3.9197e-19 0.122355)
(-0.0214925 2.08733e-19 0.116928)
(-0.0202428 4.47669e-19 0.11116)
(-0.0133968 -1.12258e-19 0.105757)
(0.0011864 -5.08945e-19 0.105115)
(-0.00193957 -3.40367e-19 0.107764)
(-0.00496131 -6.32716e-20 0.106943)
(-0.0101901 6.40369e-19 0.104105)
(-0.00746982 1.3451e-19 0.10002)
(-0.00195122 -2.73527e-19 0.0986696)
(-0.00473805 -5.39122e-20 0.0983431)
(-0.00937514 5.7303e-19 0.0958544)
(-0.0118804 -8.18733e-20 0.091601)
(-0.0120834 -7.12136e-20 0.0868567)
(-0.00913895 2.76517e-19 0.0821979)
(0.00058351 6.54155e-20 0.0805915)
(0.000723186 -1.1055e-18 0.0814038)
(-0.00280627 -8.09087e-20 0.081301)
(-0.00416938 6.28711e-19 0.080557)
(-0.0147789 1.06872e-19 0.0772084)
(-0.0126758 -2.46782e-19 0.0716145)
(-0.0115276 -5.05194e-20 0.0684913)
(-0.013689 2.73178e-19 0.065232)
(-0.0125077 -2.93049e-19 0.0599905)
(-0.00596736 -5.11143e-20 0.0577011)
(-0.00836012 2.54585e-19 0.0565733)
(-0.0048436 5.48918e-21 0.0536489)
(-0.00395964 -2.34798e-19 0.052779)
(-0.00352645 -1.53134e-20 0.0517503)
(-0.001586 1.58307e-19 0.0509667)
(-0.000440284 -7.97939e-20 0.0510722)
(-0.000790362 -2.72748e-20 0.0523316)
(-0.00222403 -7.8184e-20 0.0526974)
(-0.00113303 -4.09842e-20 0.0584159)
(-0.00105725 1.41484e-19 0.0605341)
(-0.00225757 -1.99206e-20 0.0844923)
(-0.63716 1.88453e-19 0.086118)
(-0.3112 1.10977e-18 -0.496999)
(-0.300736 -3.1664e-19 -0.242463)
(-0.163937 -2.76461e-19 -0.331215)
(-0.176392 -2.10177e-19 -0.24236)
(-0.107511 9.92251e-20 -0.256595)
(-0.104634 -3.92015e-19 -0.224271)
(-0.0647491 -3.10843e-19 -0.221514)
(-0.0516076 -5.2868e-20 -0.20737)
(-0.0241807 4.08514e-19 -0.199193)
(-0.0183898 -1.37571e-20 -0.189785)
(-0.00515372 -3.70181e-19 -0.183849)
(-0.0854835 -2.93099e-23 0.000340675)
(-0.0868193 1.10923e-21 0.00101629)
(-0.0863383 3.1585e-20 0.0017258)
(-0.0854609 4.61642e-19 0.00242374)
(-0.0842525 -5.35908e-20 0.00316057)
(-0.0826408 -6.05332e-20 0.00399014)
(-0.0806065 -2.07366e-20 0.00489511)
(-0.0781222 4.0514e-19 0.00592161)
(-0.075145 -3.15314e-19 0.00710599)
(-0.0716113 -6.65778e-20 0.00850102)
(-0.0674384 -1.77585e-19 0.0101839)
(-0.0625354 2.34139e-19 0.0122543)
(-0.0568343 -1.94345e-19 0.014825)
(-0.0503534 -5.78122e-20 0.0180795)
(-0.0432636 -6.17072e-20 0.0225957)
(-0.0360857 1.03022e-19 0.0298473)
(-0.0301734 1.4907e-20 0.0452109)
(-0.0311901 -8.38921e-20 0.0655366)
(-0.0354179 2.30024e-19 0.0799143)
(-0.0394338 1.94312e-19 0.0884329)
(-0.042978 8.89933e-20 0.0948488)
(-0.0460164 -1.47396e-19 0.100155)
(-0.0486224 -4.42008e-19 0.104737)
(-0.0507813 7.34394e-20 0.108828)
(-0.0526127 3.42206e-21 0.112544)
(-0.0540801 2.30217e-19 0.115972)
(-0.0553159 4.47751e-19 0.119137)
(-0.0562243 1.58024e-19 0.122024)
(-0.0568557 2.78133e-19 0.124706)
(-0.0572176 -9.6759e-21 0.127228)
(-0.0573662 -5.22012e-19 0.129593)
(-0.0572961 -9.25803e-19 0.131761)
(-0.0570091 -1.06831e-18 0.13374)
(-0.0565285 1.40534e-19 0.135544)
(-0.055869 1.48781e-19 0.137174)
(-0.055057 7.56464e-20 0.13863)
(-0.0541085 -9.26036e-21 0.139911)
(-0.0530598 -6.35497e-19 0.140991)
(-0.0519254 4.35606e-19 0.141815)
(-0.0507005 2.79128e-19 0.14236)
(-0.04941 2.2644e-21 0.142628)
(-0.0480569 3.47526e-19 0.142622)
(-0.0465774 1.3333e-19 0.142331)
(-0.0449431 3.06453e-19 0.141759)
(-0.0431389 1.41891e-20 0.140897)
(-0.0411014 1.8839e-19 0.13975)
(-0.038825 -2.7352e-19 0.138384)
(-0.0363394 -1.56487e-19 0.136846)
(-0.0336229 1.54195e-19 0.135131)
(-0.0306115 1.01749e-19 0.133253)
(-0.0272492 4.7044e-19 0.131285)
(-0.0234876 2.39033e-19 0.129322)
(-0.0192732 -1.28042e-19 0.127495)
(-0.0146375 -1.19502e-19 0.125974)
(-0.00989587 2.49829e-19 0.125495)
(-0.0057765 -1.54677e-19 0.128668)
(-0.00474569 -5.8585e-20 0.134229)
(-0.00609768 -5.15446e-19 0.13719)
(-0.00768449 -8.98695e-20 0.137076)
(-0.0091639 3.01755e-19 0.135465)
(-0.0103989 3.77463e-20 0.132837)
(-0.0112807 2.30967e-19 0.129341)
(-0.0116161 -2.3906e-19 0.125025)
(-0.011204 3.42688e-19 0.120013)
(-0.00976384 5.79926e-19 0.114539)
(-0.00698 2.07819e-19 0.109025)
(-0.00287572 -1.17884e-18 0.108366)
(-0.00215666 1.18733e-19 0.10985)
(-0.00242511 7.16912e-19 0.109214)
(-0.00296965 -1.58857e-19 0.106413)
(-0.00231811 -5.46735e-19 0.10242)
(-0.00127958 -2.53752e-19 0.100656)
(-0.00181936 2.79599e-19 0.100144)
(-0.00281788 3.17269e-19 0.0978024)
(-0.00342694 4.50778e-19 0.0937336)
(-0.0032893 -4.83584e-19 0.0891137)
(-0.002255 3.13041e-19 0.0844044)
(-0.000142947 -6.45735e-19 0.082586)
(0.000143486 5.46662e-20 0.0831627)
(-0.00100365 4.01053e-19 0.0827149)
(-0.00201883 -4.09708e-19 0.0818214)
(-0.0047546 3.20053e-19 0.0787536)
(-0.0052791 -1.36383e-19 0.073455)
(-0.00556351 3.27273e-19 0.0701848)
(-0.0056983 -7.10359e-20 0.0667042)
(-0.00534857 -2.21335e-19 0.0611236)
(-0.0031501 -1.08954e-19 0.0585267)
(-0.00351223 2.02856e-19 0.0571975)
(-0.00231794 -1.1228e-19 0.0538759)
(-0.00163108 1.47072e-20 0.0525575)
(-0.00146369 2.24391e-19 0.0510921)
(-0.0014299 -4.26393e-19 0.0493105)
(-0.00153873 7.22549e-20 0.048458)
(-0.00300471 3.16206e-19 0.0480661)
(-0.00660025 -8.67592e-20 0.047183)
(-0.0111905 -1.76428e-20 0.0486758)
(-0.0239067 -1.04352e-19 0.0489864)
(-0.0354679 3.70857e-20 0.0649745)
(-0.0663432 4.16279e-20 0.0684626)
(-0.145156 4.62274e-18 -0.397611)
(-0.357105 3.78606e-20 -0.221754)
(-0.223405 -2.68434e-19 -0.258128)
(-0.203813 -1.57939e-19 -0.205118)
(-0.145664 5.96084e-20 -0.212967)
(-0.120448 -1.81289e-20 -0.194137)
(-0.0882076 2.13158e-20 -0.19227)
(-0.0658231 -7.14692e-20 -0.183217)
(-0.0442315 -2.94968e-20 -0.176961)
(-0.0279356 -3.94638e-19 -0.17046)
(-0.0127963 8.88053e-20 -0.166274)
(-0.0863099 -5.26224e-23 0.000489371)
(-0.087655 1.62033e-22 0.00146763)
(-0.0872013 2.45232e-21 0.00249182)
(-0.0863526 -4.99875e-21 0.00351833)
(-0.0852098 -3.40818e-19 0.00462493)
(-0.0836947 -3.33891e-19 0.00582809)
(-0.0817861 -2.69398e-19 0.00714021)
(-0.0794641 -2.86018e-19 0.00861618)
(-0.0767001 4.73879e-19 0.0103042)
(-0.0734526 -1.44704e-19 0.0122715)
(-0.0696678 4.53655e-19 0.0146157)
(-0.0652801 -2.06841e-19 0.0174844)
(-0.0602031 3.47826e-19 0.0211196)
(-0.0543109 -6.98982e-20 0.0259532)
(-0.0475 3.56427e-19 0.0326336)
(-0.0400354 -1.45654e-19 0.0417107)
(-0.0330953 2.14323e-19 0.0532641)
(-0.0320324 2.16598e-19 0.065384)
(-0.035354 -1.15318e-19 0.0755711)
(-0.0392256 1.79431e-19 0.0836634)
(-0.0429084 2.46027e-19 0.0904144)
(-0.0461938 2.86243e-19 0.096237)
(-0.0490653 5.82841e-20 0.101375)
(-0.0514956 9.33666e-20 0.105995)
(-0.0535476 4.22011e-19 0.110202)
(-0.0552127 2.25715e-19 0.114068)
(-0.0565588 -2.74068e-19 0.117637)
(-0.0575622 -3.30078e-19 0.120928)
(-0.0582465 4.13247e-19 0.123981)
(-0.0586343 3.85662e-19 0.126822)
(-0.0587655 4.52585e-19 0.129463)
(-0.0586537 5.20988e-19 0.131897)
(-0.058308 9.71648e-20 0.134127)
(-0.0577483 -4.54928e-19 0.136157)
(-0.0569937 -2.26539e-19 0.137987)
(-0.0560672 3.04677e-19 0.139614)
(-0.0549888 -1.07575e-19 0.141033)
(-0.0537838 -7.46925e-19 0.142228)
(-0.0524679 2.51351e-19 0.143177)
(-0.0510461 -8.22156e-20 0.143865)
(-0.0495308 -7.77999e-19 0.144283)
(-0.0479277 -3.08941e-19 0.144416)
(-0.0462142 1.85143e-19 0.144255)
(-0.044369 -7.83336e-20 0.143807)
(-0.0423765 -3.51576e-19 0.143083)
(-0.0402016 4.99164e-19 0.142105)
(-0.0378316 -3.44354e-19 0.140915)
(-0.0352814 -7.1752e-19 0.13955)
(-0.0325439 -3.29955e-19 0.138036)
(-0.0295807 1.76938e-19 0.136416)
(-0.0263524 2.37716e-20 0.134771)
(-0.022826 -4.5796e-19 0.133227)
(-0.0189645 4.94637e-20 0.131966)
(-0.0147464 -8.80276e-20 0.131319)
(-0.0101705 -3.78824e-19 0.131706)
(-0.00583972 3.8917e-19 0.133178)
(-0.00434694 9.64941e-19 0.134887)
(-0.00515431 -2.18928e-19 0.135654)
(-0.00638717 -7.83223e-19 0.135128)
(-0.00764948 -1.51227e-19 0.133526)
(-0.00874711 2.95297e-19 0.131131)
(-0.00953554 5.01253e-20 0.128102)
(-0.00983014 -5.34694e-19 0.124589)
(-0.00943208 1.44531e-19 0.120792)
(-0.00811762 7.9816e-20 0.11701)
(-0.00570117 -3.95225e-19 0.113596)
(-0.00211949 -1.53059e-19 0.111408)
(-0.00135813 2.81552e-19 0.110161)
(-0.00149102 8.87627e-20 0.108566)
(-0.00181682 -4.60741e-19 0.106268)
(-0.0013617 -1.16596e-19 0.103666)
(-0.000660762 3.01493e-19 0.101414)
(-0.00108124 4.45856e-20 0.0994019)
(-0.00190054 -4.09832e-19 0.0968274)
(-0.0023785 2.14759e-19 0.093788)
(-0.00221844 1.93146e-20 0.0906137)
(-0.00133617 -3.07407e-19 0.0876086)
(0.000377713 -6.85052e-20 0.0853152)
(0.000722891 2.85847e-19 0.083768)
(-0.000192104 3.55561e-20 0.0820692)
(-0.0012518 -4.04796e-19 0.0800854)
(-0.00346052 -4.86771e-20 0.077266)
(-0.00391392 2.14384e-19 0.0738181)
(-0.00415428 3.25939e-20 0.0704609)
(-0.00419912 -2.35761e-19 0.0670965)
(-0.00391423 2.12287e-19 0.0635105)
(-0.00209635 1.17425e-20 0.0606132)
(-0.00204219 -2.23001e-19 0.0584699)
(-0.00109789 -1.80204e-20 0.055902)
(-0.000450305 2.20187e-19 0.053916)
(-5.69706e-06 1.45973e-20 0.0522756)
(0.000421329 -2.3522e-19 0.0505015)
(0.000596517 1.1519e-19 0.0488378)
(0.000348948 1.5751e-20 0.0472707)
(-0.00131843 -1.70436e-19 0.0448352)
(-0.00425247 1.93955e-20 0.0410676)
(-0.0152675 -9.19011e-20 0.0352557)
(-0.0256685 9.25848e-20 0.024631)
(-0.0621062 -1.62722e-19 0.00796147)
(-0.0786776 -8.20734e-20 -0.0374779)
(-0.329411 5.27916e-19 -0.134635)
(-0.227782 7.84934e-20 -0.157275)
(-0.195606 1.63104e-19 -0.160015)
(-0.145471 2.32919e-20 -0.170064)
(-0.117927 2.86069e-19 -0.165248)
(-0.0878156 5.66335e-20 -0.165522)
(-0.0649235 -4.0843e-20 -0.16212)
(-0.0438852 -1.44818e-19 -0.159259)
(-0.0275082 2.06087e-19 -0.156208)
(-0.0127298 2.56651e-19 -0.153795)
(-0.0874307 -1.72288e-23 0.000631817)
(-0.0887985 5.45237e-22 0.00190353)
(-0.0883903 6.81362e-21 0.00321831)
(-0.0875908 -3.04869e-19 0.00455132)
(-0.0865217 2.67989e-19 0.00598678)
(-0.0851211 3.45875e-19 0.0075249)
(-0.0833682 4.03304e-19 0.00919803)
(-0.0812492 -1.69952e-20 0.0110635)
(-0.0787485 -3.36543e-19 0.0131748)
(-0.0758469 2.84702e-19 0.0156019)
(-0.0725252 -1.85153e-19 0.0184397)
(-0.0687742 -3.4081e-20 0.0218171)
(-0.064616 -2.89063e-19 0.0259064)
(-0.0601595 1.92816e-19 0.0309136)
(-0.0557229 -5.72574e-20 0.0370395)
(-0.0519265 -2.8436e-20 0.0444955)
(-0.0495106 -3.29242e-19 0.0534989)
(-0.04922 -4.23534e-20 0.0634976)
(-0.0504369 -2.29055e-19 0.0729987)
(-0.0521953 -4.61911e-19 0.0811784)
(-0.0540834 -3.38767e-19 0.0881896)
(-0.0559031 -1.00446e-19 0.0943062)
(-0.0575595 -1.73879e-19 0.099738)
(-0.0589982 1.73307e-19 0.104636)
(-0.060204 -1.55534e-19 0.109107)
(-0.0611619 6.53124e-19 0.113223)
(-0.061877 4.78208e-19 0.117032)
(-0.0623394 -7.01957e-19 0.120567)
(-0.0625526 -1.00469e-18 0.123856)
(-0.0625256 -4.96097e-19 0.12692)
(-0.0622724 -2.18193e-20 0.12977)
(-0.0618023 -1.91381e-19 0.132405)
(-0.0611242 2.72191e-19 0.134826)
(-0.0602515 1.15997e-18 0.137034)
(-0.0591985 3.12003e-19 0.139027)
(-0.0579811 3.4081e-19 0.1408)
(-0.0566143 2.92532e-19 0.142346)
(-0.0551147 -2.83958e-19 0.143656)
(-0.0534975 6.28444e-19 0.144715)
(-0.0517741 4.14282e-19 0.145514)
(-0.0499553 2.58301e-19 0.146043)
(-0.0480448 6.93957e-20 0.14629)
(-0.0460298 1.07293e-19 0.146251)
(-0.0438932 1.91656e-19 0.145933)
(-0.0416196 -7.26733e-19 0.145352)
(-0.039191 4.41152e-19 0.144531)
(-0.0366012 7.09964e-19 0.143504)
(-0.0338548 2.16453e-19 0.142309)
(-0.0309479 7.74641e-20 0.140982)
(-0.0278668 1.09444e-19 0.139571)
(-0.0246042 5.42528e-19 0.13815)
(-0.0211712 1.63904e-19 0.136813)
(-0.0176112 -3.76849e-19 0.135679)
(-0.014037 -4.25192e-19 0.134879)
(-0.0107372 3.37087e-19 0.134521)
(-0.00817365 9.41154e-20 0.134737)
(-0.00660694 8.93149e-19 0.135307)
(-0.00593108 7.46375e-20 0.135487)
(-0.00582736 -5.18294e-19 0.134847)
(-0.00586793 -3.24909e-20 0.133431)
(-0.00586724 -3.84532e-19 0.131313)
(-0.0057151 -1.07937e-19 0.128631)
(-0.00530026 -5.58525e-19 0.125492)
(-0.00452874 2.0231e-19 0.122059)
(-0.00333318 4.8018e-19 0.118561)
(-0.00175841 -2.31409e-19 0.115308)
(-7.86995e-05 -4.01109e-19 0.112892)
(0.000840123 -4.64741e-19 0.111142)
(0.00138372 -9.13523e-20 0.109222)
(0.0017986 3.84336e-19 0.106844)
(0.00222813 1.06068e-19 0.104261)
(0.00255175 -3.29336e-19 0.101896)
(0.00260219 -8.16353e-20 0.0996233)
(0.00253729 3.38192e-19 0.0970048)
(0.00251143 -1.62417e-19 0.0940109)
(0.00262851 -6.38745e-20 0.0908923)
(0.00291604 2.46761e-19 0.0879358)
(0.00325909 7.28981e-20 0.0855401)
(0.00318998 -3.00207e-19 0.0836797)
(0.00276087 -2.43823e-20 0.0817526)
(0.00221674 2.9876e-19 0.0795754)
(0.00145218 8.59972e-20 0.0768098)
(0.0010025 -2.3928e-19 0.0735551)
(0.000770272 -1.66338e-20 0.0703314)
(0.000738832 2.43184e-19 0.0670923)
(0.000912458 -2.45372e-19 0.0637093)
(0.00139364 -2.7652e-20 0.0608627)
(0.00146233 2.08893e-19 0.058501)
(0.00175186 3.43572e-20 0.0560167)
(0.00194852 -2.12555e-19 0.053836)
(0.00198902 7.90863e-22 0.0518286)
(0.00194121 1.57433e-19 0.0498004)
(0.00165401 -1.40844e-19 0.0477669)
(0.0011079 3.35068e-22 0.0457399)
(-0.000449041 7.45564e-20 0.0435642)
(-0.00233268 3.20261e-20 0.0400845)
(-0.00868323 2.50187e-20 0.0367302)
(-0.0107269 7.08595e-20 0.0266931)
(-0.0035884 2.92769e-19 0.0144722)
(-0.03558 3.40431e-19 -0.0361514)
(-0.251716 4.67682e-19 -0.0846481)
(-0.216101 1.55655e-20 -0.114226)
(-0.182293 -1.47422e-19 -0.122174)
(-0.145384 2.04498e-19 -0.134916)
(-0.117516 -1.39169e-20 -0.136785)
(-0.0911688 -1.55956e-19 -0.139746)
(-0.0686842 -1.08869e-19 -0.139708)
(-0.048535 2.99691e-19 -0.138996)
(-0.0308605 6.03315e-20 -0.137824)
(-0.014995 -2.47698e-19 -0.136804)
(-0.0888274 2.73188e-23 0.000763459)
(-0.0902239 1.43447e-21 0.002307)
(-0.0898649 2.30228e-20 0.00388194)
(-0.0891343 7.87299e-20 0.00549378)
(-0.0881524 -5.01685e-20 0.00722717)
(-0.0868816 -3.42235e-22 0.00906684)
(-0.0853038 4.48009e-20 0.0110576)
(-0.0834109 2.30447e-20 0.0132559)
(-0.0811978 6.20122e-23 0.0157154)
(-0.0786624 -3.06226e-21 0.0185022)
(-0.0758094 1.36355e-19 0.0216994)
(-0.0726596 -1.20089e-20 0.0254101)
(-0.0692655 -1.19565e-20 0.029758)
(-0.0657345 -2.21899e-21 0.0348786)
(-0.0622439 2.06306e-19 0.0409027)
(-0.0590458 -2.10689e-21 0.0479427)
(-0.0565291 1.73692e-19 0.0559447)
(-0.055274 9.07149e-20 0.0643933)
(-0.0553827 -7.53933e-20 0.0725198)
(-0.0563239 1.49029e-19 0.0799176)
(-0.0576613 1.56328e-19 0.0865829)
(-0.0591222 -2.00994e-20 0.0926185)
(-0.0605455 -4.20077e-19 0.0981265)
(-0.0618321 2.18877e-19 0.103191)
(-0.0629281 5.60458e-21 0.107879)
(-0.0638002 5.06632e-19 0.112238)
(-0.0644334 5.38343e-19 0.116304)
(-0.0648163 -1.85301e-19 0.120102)
(-0.0649464 1.62857e-19 0.123651)
(-0.0648282 1.10723e-19 0.126967)
(-0.06447 -2.53904e-19 0.130056)
(-0.063881 -8.59363e-19 0.13292)
(-0.0630709 -6.25926e-19 0.135558)
(-0.062052 3.58228e-19 0.137969)
(-0.0608383 7.87568e-20 0.140149)
(-0.0594446 4.88572e-20 0.142093)
(-0.0578862 4.57271e-20 0.143793)
(-0.056179 -5.5496e-19 0.145243)
(-0.0543382 3.54745e-19 0.146432)
(-0.0523767 1.41002e-19 0.147353)
(-0.0503053 3.56194e-20 0.147999)
(-0.0481302 1.07321e-19 0.148364)
(-0.0458488 3.88925e-20 0.148447)
(-0.0434539 9.93997e-20 0.148256)
(-0.0409384 -8.20958e-20 0.147805)
(-0.0382963 4.87726e-19 0.147118)
(-0.0355272 -1.73816e-19 0.146225)
(-0.0326372 -3.71861e-20 0.145161)
(-0.0296318 1.26036e-19 0.143964)
(-0.026516 5.88883e-20 0.142679)
(-0.0233017 4.64341e-19 0.141366)
(-0.0200171 1.86977e-19 0.140096)
(-0.0167153 -3.84609e-19 0.138953)
(-0.0134878 -1.66905e-19 0.138019)
(-0.0104682 3.5584e-19 0.137359)
(-0.00783191 -4.28551e-19 0.136971)
(-0.00588253 -7.87121e-20 0.136638)
(-0.00475112 -1.35155e-19 0.135998)
(-0.00415895 -3.67948e-20 0.134892)
(-0.00378719 2.09178e-19 0.133241)
(-0.00348697 1.66886e-20 0.131071)
(-0.00314285 1.43682e-19 0.128474)
(-0.00265038 -3.69599e-19 0.125583)
(-0.0019217 3.55321e-19 0.122539)
(-0.000911844 5.82482e-19 0.119502)
(0.0003398 1.56175e-19 0.116633)
(0.00165132 -4.15497e-19 0.114081)
(0.002526 2.64023e-19 0.111764)
(0.00305307 9.16373e-20 0.109424)
(0.00343151 -4.03957e-22 0.106966)
(0.0037912 1.11473e-20 0.10444)
(0.00406544 -4.14875e-19 0.101924)
(0.00413026 -4.61733e-20 0.0993815)
(0.00407035 3.43002e-19 0.0967256)
(0.00403831 4.11907e-19 0.0939682)
(0.0041352 -5.74937e-19 0.0911915)
(0.00436501 2.23944e-19 0.088494)
(0.00463327 2.10706e-20 0.0859772)
(0.00464408 -3.54158e-20 0.0836091)
(0.00432951 3.22669e-20 0.0811996)
(0.00383199 -3.5933e-20 0.0786681)
(0.00320245 1.45324e-20 0.0759341)
(0.00279611 -2.6401e-19 0.0730325)
(0.00257657 4.39743e-19 0.0700995)
(0.00253172 -1.4273e-19 0.0671903)
(0.00266105 -2.75516e-19 0.0643303)
(0.00303609 -7.22435e-20 0.0616739)
(0.00326235 2.34901e-19 0.0592207)
(0.00357284 3.26153e-20 0.056814)
(0.00387801 -1.94259e-20 0.0545506)
(0.0041402 1.65768e-19 0.0523842)
(0.0043834 -3.33295e-19 0.05023)
(0.00453258 1.07357e-19 0.0479741)
(0.00474434 3.63704e-20 0.0453374)
(0.00408468 -9.33187e-20 0.0428065)
(0.00341914 -3.57994e-20 0.0377077)
(-0.00229822 -8.81912e-20 0.0341946)
(-0.00250955 1.56132e-20 0.0233322)
(0.011376 4.16068e-20 0.0150196)
(0.000284589 3.08164e-18 -0.00349116)
(-0.215668 7.05238e-20 -0.0441599)
(-0.200279 -1.91281e-19 -0.0771372)
(-0.166312 -4.98919e-20 -0.0878059)
(-0.137594 1.31434e-19 -0.104768)
(-0.11128 1.37378e-19 -0.110216)
(-0.0875908 -6.26206e-20 -0.116064)
(-0.0663654 -1.97385e-20 -0.118766)
(-0.0472017 5.34089e-20 -0.12021)
(-0.0301202 -3.40572e-19 -0.12076)
(-0.0147329 4.07184e-20 -0.120879)
(-0.0904759 3.49774e-23 0.000883156)
(-0.0919044 2.07386e-21 0.00266875)
(-0.0915974 4.08983e-20 0.00447922)
(-0.0909476 7.45148e-20 0.00634192)
(-0.0900651 -4.58916e-20 0.0083376)
(-0.0889338 -3.86258e-20 0.0104434)
(-0.0875409 -3.68963e-21 0.0127084)
(-0.0858832 -1.65208e-20 0.0151855)
(-0.0839634 1.94039e-19 0.0179253)
(-0.0817907 -8.73928e-20 0.0209866)
(-0.0793837 3.10275e-19 0.0244382)
(-0.0767777 1.98093e-20 0.0283581)
(-0.0740351 5.99915e-20 0.0328303)
(-0.0712583 -2.75863e-20 0.0379347)
(-0.0686006 2.51423e-19 0.0437288)
(-0.0662756 2.34202e-20 0.0502165)
(-0.0645741 -8.71265e-20 0.0572859)
(-0.0637509 3.88167e-19 0.0646579)
(-0.0637616 -1.34676e-19 0.0719581)
(-0.064318 -2.51277e-19 0.078906)
(-0.0651559 2.44278e-21 0.0853962)
(-0.0660918 2.63911e-19 0.091427)
(-0.0670056 -8.15368e-20 0.0970334)
(-0.0678175 1.61834e-19 0.102258)
(-0.0684759 -1.52105e-20 0.107142)
(-0.0689466 5.00557e-19 0.111719)
(-0.0692082 9.06986e-19 0.116014)
(-0.0692467 -5.10883e-19 0.120047)
(-0.0690548 -6.58864e-19 0.123833)
(-0.0686312 -9.2908e-20 0.127381)
(-0.0679784 4.41839e-19 0.130695)
(-0.067102 -1.01595e-19 0.133777)
(-0.0660093 -7.79964e-21 0.136623)
(-0.0647102 8.64529e-19 0.13923)
(-0.0632165 3.0253e-19 0.141593)
(-0.0615415 7.57114e-20 0.143705)
(-0.0596992 1.27409e-19 0.145561)
(-0.0577044 -6.2151e-19 0.147153)
(-0.0555719 2.85464e-19 0.148474)
(-0.0533157 1.18703e-19 0.149517)
(-0.0509475 -4.38038e-20 0.150278)
(-0.0484761 3.52791e-20 0.150754)
(-0.0459052 -2.09632e-20 0.150947)
(-0.0432351 9.85894e-21 0.150865)
(-0.0404653 -9.59955e-19 0.150522)
(-0.0375964 2.30114e-19 0.14994)
(-0.034633 5.70822e-19 0.149147)
(-0.0315839 1.65759e-19 0.148174)
(-0.0284603 7.27248e-20 0.147058)
(-0.025276 4.51e-20 0.14584)
(-0.0220512 5.03934e-19 0.144568)
(-0.0188193 1.75048e-19 0.143297)
(-0.0156319 -3.97107e-19 0.14208)
(-0.0125663 -5.20808e-19 0.140965)
(-0.00973103 2.96632e-19 0.139969)
(-0.007263 3.96517e-20 0.139065)
(-0.00530423 1.71023e-19 0.138146)
(-0.0038596 1.59805e-20 0.137043)
(-0.00280218 -8.81694e-20 0.135614)
(-0.0019616 3.69873e-21 0.133804)
(-0.00121428 -1.25937e-19 0.131636)
(-0.000455154 -1.94042e-20 0.129156)
(0.000383323 -4.9268e-19 0.126425)
(0.00133139 2.36803e-19 0.123529)
(0.00237394 4.91579e-19 0.120582)
(0.00346891 -2.52501e-19 0.117722)
(0.00450288 -4.93553e-19 0.115046)
(0.00533191 -5.3915e-19 0.112517)
(0.00597796 -1.3766e-19 0.11)
(0.00649961 3.50519e-19 0.107425)
(0.00692595 1.09848e-19 0.104809)
(0.00724549 -3.63855e-19 0.10219)
(0.00744927 -1.26184e-19 0.0995497)
(0.00757033 3.30899e-19 0.0968417)
(0.00764933 -1.47101e-19 0.094064)
(0.00771325 -1.1824e-19 0.0912682)
(0.00776206 2.54623e-19 0.0885254)
(0.00776135 8.42754e-20 0.0858997)
(0.00764301 -3.05967e-19 0.0833798)
(0.00740548 -8.87627e-20 0.0808708)
(0.00710296 2.5792e-19 0.0782991)
(0.0067705 7.63522e-20 0.0756)
(0.00649535 -2.99243e-19 0.0727815)
(0.00629797 -7.32007e-20 0.069925)
(0.00618226 2.54939e-19 0.0670812)
(0.00613688 -2.49952e-19 0.0642897)
(0.00615577 -9.42521e-20 0.0616499)
(0.00615543 2.18235e-19 0.059175)
(0.00618778 3.89607e-20 0.0567821)
(0.00624113 -2.24638e-19 0.0544722)
(0.00631041 -2.54804e-20 0.0522103)
(0.00640461 1.59368e-19 0.0499798)
(0.00648263 -1.72097e-19 0.047743)
(0.00679484 -2.68087e-20 0.0451289)
(0.00658575 2.51369e-20 0.0432536)
(0.00701749 -6.29307e-21 0.0386904)
(0.00400365 1.44665e-20 0.0374249)
(0.00769227 -3.5907e-20 0.0270455)
(0.0259448 5.8083e-20 0.0227972)
(0.0160698 8.59042e-20 0.0140884)
(-0.176146 2.05211e-19 -0.00647561)
(-0.179688 -1.55012e-19 -0.0526933)
(-0.149202 1.49386e-19 -0.0579426)
(-0.127136 2.40857e-19 -0.0798577)
(-0.103487 5.9865e-20 -0.0862551)
(-0.0829392 -2.60036e-19 -0.0946394)
(-0.0637185 -7.08277e-20 -0.0990834)
(-0.0459491 2.1684e-19 -0.102001)
(-0.0296191 5.91553e-20 -0.103714)
(-0.0145939 -2.40249e-19 -0.104667)
(-0.0923494 1.13564e-23 0.000990221)
(-0.0938115 1.94353e-21 0.00298757)
(-0.0935627 3.58787e-20 0.00500828)
(-0.0929985 9.02292e-20 0.00709114)
(-0.092224 -8.16594e-20 0.00931297)
(-0.0912371 -2.3023e-20 0.0116472)
(-0.0900314 4.01638e-20 0.0141434)
(-0.088608 8.95795e-20 0.0168491)
(-0.0869746 -2.78001e-19 0.0198099)
(-0.0851468 -3.02117e-19 0.0230766)
(-0.0831499 -1.24914e-19 0.0267042)
(-0.0810233 -1.97072e-20 0.0307504)
(-0.0788272 -2.41467e-19 0.0352702)
(-0.0766481 -2.53917e-19 0.0403075)
(-0.0746026 -4.15632e-20 0.045881)
(-0.0728345 -2.19685e-20 0.0519633)
(-0.0714989 -1.41854e-19 0.0584569)
(-0.0707051 7.29049e-20 0.0651841)
(-0.070448 2.12105e-20 0.0719258)
(-0.0706043 -2.45625e-19 0.0784946)
(-0.0710181 -1.59068e-19 0.0847793)
(-0.0715536 -1.24237e-19 0.0907376)
(-0.0721059 -5.05541e-19 0.0963681)
(-0.0725964 -1.494e-19 0.101686)
(-0.0729678 -8.50964e-20 0.106712)
(-0.0731789 3.92282e-20 0.111465)
(-0.0732006 1.29659e-18 0.115961)
(-0.0730129 -1.34733e-20 0.120209)
(-0.0726032 -4.52822e-19 0.124219)
(-0.0719654 -3.0177e-19 0.127993)
(-0.0710981 -2.16489e-19 0.131532)
(-0.0700037 -8.22031e-19 0.134833)
(-0.0686877 -8.98196e-19 0.137891)
(-0.0671586 3.37986e-19 0.140701)
(-0.0654271 3.7347e-19 0.143256)
(-0.0635059 1.20453e-19 0.145547)
(-0.0614092 8.18452e-19 0.147568)
(-0.0591519 -1.85145e-19 0.149312)
(-0.0567498 -1.15081e-19 0.150771)
(-0.0542179 2.55621e-19 0.151942)
(-0.0515701 7.44521e-20 0.15282)
(-0.0488182 3.78263e-19 0.153405)
(-0.045971 1.30227e-19 0.153701)
(-0.0430352 3.42106e-19 0.153715)
(-0.0400164 -2.48333e-19 0.153461)
(-0.0369214 1.93985e-19 0.152961)
(-0.0337598 2.97401e-19 0.15224)
(-0.0305441 1.22642e-19 0.151326)
(-0.02729 2.42831e-19 0.150253)
(-0.0240165 1.27153e-19 0.149056)
(-0.0207487 6.12685e-19 0.147775)
(-0.017521 3.56632e-19 0.146452)
(-0.0143804 -1.63103e-19 0.145123)
(-0.0113883 4.53566e-19 0.143815)
(-0.00861924 5.71198e-19 0.142537)
(-0.00615218 -7.27667e-19 0.141266)
(-0.00405455 -1.92319e-19 0.139939)
(-0.00234428 -2.02926e-20 0.138461)
(-0.000959525 -1.1698e-20 0.136744)
(0.00020377 5.75532e-20 0.13474)
(0.00123299 1.62325e-20 0.132453)
(0.00218327 4.57301e-19 0.129922)
(0.00311355 -2.6117e-19 0.127206)
(0.00406278 -7.23291e-20 0.124374)
(0.00505029 3.68689e-19 0.121504)
(0.00604552 4.30397e-20 0.118665)
(0.00697788 -3.82341e-19 0.115903)
(0.00776656 -1.27189e-19 0.113204)
(0.00840152 1.35694e-20 0.11052)
(0.00891025 3.76547e-19 0.107819)
(0.00931506 9.01009e-20 0.105103)
(0.00961765 -6.98585e-19 0.102379)
(0.00981687 -1.09514e-19 0.0996413)
(0.00993374 6.73997e-19 0.0968779)
(0.0100012 1.78899e-19 0.0940947)
(0.0100442 -5.69678e-19 0.0913147)
(0.0100653 5.15628e-19 0.088566)
(0.0100412 1.32461e-19 0.08587)
(0.00993122 -3.03684e-19 0.0832189)
(0.00972338 -3.92989e-20 0.0805746)
(0.00944431 2.63914e-19 0.0779043)
(0.00913272 9.86781e-20 0.0751879)
(0.00885177 -5.01535e-19 0.0724352)
(0.00863042 4.37697e-19 0.0696838)
(0.00847865 9.69779e-20 0.0669673)
(0.00839427 -4.74322e-19 0.0643128)
(0.00837059 -3.6916e-20 0.061754)
(0.00836889 4.64913e-19 0.0592985)
(0.00839773 8.70454e-20 0.0569262)
(0.0084606 -2.11313e-19 0.0546423)
(0.00857936 2.03325e-19 0.0524173)
(0.00877356 -1.23439e-19 0.0502278)
(0.00901367 -1.51821e-20 0.0481168)
(0.00955075 5.24235e-20 0.0454478)
(0.00963989 6.92392e-21 0.0440034)
(0.0103289 -6.01473e-21 0.0394131)
(0.00803507 -7.89983e-20 0.0396201)
(0.0124671 1.23973e-19 0.0308562)
(0.03013 3.35977e-19 0.0318595)
(0.0209469 7.02611e-18 0.0308518)
(-0.138001 1.37375e-19 0.0221858)
(-0.155779 -1.34758e-19 -0.0313356)
(-0.132171 1.00004e-19 -0.0329108)
(-0.114275 1.13524e-19 -0.0588942)
(-0.093695 -4.32384e-20 -0.0650945)
(-0.0761318 -2.13702e-19 -0.0756621)
(-0.0590339 -1.42295e-20 -0.0812033)
(-0.0429315 2.72049e-19 -0.0852354)
(-0.0278582 -2.65161e-19 -0.0877935)
(-0.0137873 -1.59139e-19 -0.0893217)
(-0.0944204 -3.15922e-23 0.00108394)
(-0.095917 1.49709e-21 0.00326351)
(-0.0957299 3.49017e-20 0.00546664)
(-0.095254 3.56895e-19 0.00773846)
(-0.0945922 -8.82355e-20 0.0101512)
(-0.0937515 -4.44811e-20 0.0126766)
(-0.0927304 5.82438e-20 0.0153626)
(-0.0915339 -1.90349e-20 0.0182514)
(-0.0901731 2.7998e-19 0.0213831)
(-0.0886662 1.08744e-19 0.0248007)
(-0.0870402 3.16523e-19 0.0285481)
(-0.0853327 1.38435e-19 0.0326675)
(-0.0835956 2.38382e-19 0.0371943)
(-0.0818974 1.47658e-19 0.042151)
(-0.0803227 2.797e-19 0.0475371)
(-0.0789661 1.41053e-19 0.0533177)
(-0.0779175 1.2553e-19 0.0594151)
(-0.0772339 4.1018e-19 0.0657094)
(-0.076912 2.32652e-19 0.0720589)
(-0.076888 3.93504e-20 0.078334)
(-0.077065 1.82418e-19 0.0844423)
(-0.0773428 2.99034e-19 0.0903315)
(-0.0776339 -1.21997e-19 0.0959796)
(-0.0778676 -3.88022e-19 0.101382)
(-0.0779892 1.95552e-19 0.106541)
(-0.077957 -5.55608e-19 0.111464)
(-0.0777404 7.07404e-19 0.116154)
(-0.0773172 6.36917e-19 0.120615)
(-0.0766726 1.73702e-20 0.124847)
(-0.075798 1.63466e-19 0.128849)
(-0.0746897 3.22014e-19 0.132616)
(-0.0733484 -3.54268e-20 0.136143)
(-0.0717786 -5.36644e-19 0.13942)
(-0.0699879 -7.08968e-19 0.142441)
(-0.0679869 -1.23822e-19 0.145194)
(-0.0657882 -1.16162e-19 0.147672)
(-0.0634065 8.5234e-20 0.149865)
(-0.0608579 2.3626e-19 0.151766)
(-0.0581591 -4.56356e-19 0.153369)
(-0.0553271 -2.03329e-19 0.154668)
(-0.0523781 -1.9147e-19 0.155662)
(-0.0493271 3.41244e-20 0.15635)
(-0.0461874 -2.46447e-20 0.156738)
(-0.0429707 6.7503e-21 0.156833)
(-0.0396884 3.89773e-19 0.15665)
(-0.0363522 -3.79745e-19 0.156208)
(-0.0329759 -1.72096e-19 0.15553)
(-0.0295754 -8.90736e-20 0.154643)
(-0.0261694 1.47155e-20 0.153576)
(-0.0227798 -2.88011e-20 0.152362)
(-0.0194328 -3.80134e-19 0.151034)
(-0.016161 -1.14125e-20 0.149624)
(-0.0130043 4.47199e-19 0.14816)
(-0.0100099 5.14124e-19 0.146661)
(-0.00722992 -1.66558e-19 0.145132)
(-0.0047156 -4.63237e-20 0.143558)
(-0.00250662 -1.24403e-19 0.141902)
(-0.000614767 -2.77012e-20 0.14011)
(0.000998475 1.06841e-20 0.138132)
(0.0023945 -1.98245e-20 0.135938)
(0.00363706 1.36908e-20 0.133532)
(0.00478342 4.83016e-20 0.130939)
(0.00587038 4.64092e-19 0.1282)