/*--------------------------------*- C++ -*----------------------------------*\
| =========                 |                                                 |
| \\      /  F ield         | OpenFOAM: The Open Source CFD Toolbox           |
|  \\    /   O peration     | Version:  v2106                                 |
|   \\  /    A nd           | Website:  www.openfoam.com                      |
|    \\/     M anipulation  |                                                 |
\*---------------------------------------------------------------------------*/
FoamFile
{
    version     2.0;
    format      ascii;
    arch        "LSB;label=32;scalar=64";
    class       volScalarField;
    location    "1";
    object      k;
}
// * * * * * * * * * * * * * * * * * * * * * * * * * * * * * * * * * * * * * //

dimensions      [0 2 -2 0 0 0 0];

internalField   nonuniform List<scalar> 
29678
(
0.000128462
0.000190113
0.000204904
0.000209546
0.000211443
0.000212359
0.000212842
0.00021311
0.000213264
0.000213362
0.000213434
0.000213495
0.000213553
0.000213613
0.000213676
0.00021374
0.000213806
0.000213874
0.000213943
0.000214012
0.000214083
0.000214152
0.000214219
0.000214284
0.000214348
0.000214411
0.000214473
0.000214534
0.000214593
0.000214651
0.000214708
0.000214763
0.000214815
0.000214866
0.000214915
0.000214962
0.000215006
0.000215047
0.000215084
0.000215119
0.00021515
0.000215177
0.000215201
0.000215219
0.000215234
0.000215242
0.000215243
0.000215238
0.000215225
0.000215207
0.000215181
0.00021515
0.000215112
0.00021507
0.000215023
0.000214973
0.000214921
0.000214866
0.000214809
0.000214751
0.000214693
0.000214634
0.000214574
0.000214514
0.000214452
0.000214389
0.000214324
0.000214257
0.000214187
0.000214114
0.00021404
0.000213965
0.000213892
0.000213824
0.000213767
0.000213725
0.000213708
0.000213721
0.000213773
0.000213868
0.000214008
0.00021419
0.000214405
0.000214643
0.000214898
0.00021518
0.000215483
0.000215805
0.000216144
0.000216496
0.00021686
0.000217233
0.000217612
0.000217995
0.000218401
0.000218837
0.000219665
0.00022176
0.000236183
0.000291283
0.00029134
0.00026849
0.000254801
0.000247496
0.000242637
0.000240195
0.000237481
0.000234298
0.000229729
0.00022308
0.000128463
0.000190123
0.000204913
0.000209559
0.000211462
0.000212384
0.000212875
0.000213151
0.000213315
0.000213423
0.000213506
0.000213579
0.00021365
0.000213723
0.000213797
0.000213871
0.000213943
0.000214015
0.000214087
0.000214159
0.000214231
0.000214303
0.000214375
0.000214446
0.000214517
0.000214587
0.000214656
0.000214723
0.00021479
0.000214854
0.000214917
0.000214978
0.000215037
0.000215093
0.000215147
0.000215197
0.000215244
0.000215288
0.000215328
0.000215363
0.000215394
0.00021542
0.000215441
0.000215457
0.000215467
0.000215471
0.00021547
0.000215462
0.000215448
0.000215424
0.000215393
0.000215354
0.000215308
0.000215257
0.000215201
0.000215143
0.000215082
0.00021502
0.000214959
0.000214898
0.000214838
0.000214779
0.000214719
0.000214659
0.000214596
0.00021453
0.000214463
0.000214392
0.000214319
0.000214243
0.000214165
0.000214086
0.000214009
0.000213937
0.000213875
0.00021383
0.00021381
0.000213825
0.000213886
0.000213997
0.000214155
0.000214356
0.000214591
0.000214858
0.000215163
0.000215496
0.000215852
0.000216228
0.000216623
0.000217035
0.000217461
0.0002179
0.00021835
0.000218814
0.000219309
0.000219845
0.000220798
0.000222781
0.000234047
0.000276061
0.00027609
0.000265272
0.000254989
0.000248333
0.000243136
0.000239912
0.000235526
0.000230512
0.000225046
0.000220043
0.000128472
0.000190136
0.000204926
0.000209575
0.000211485
0.000212414
0.000212912
0.000213196
0.000213369
0.000213487
0.00021358
0.000213664
0.000213746
0.000213828
0.000213907
0.000213985
0.000214064
0.000214142
0.000214221
0.0002143
0.000214378
0.000214456
0.000214534
0.000214611
0.000214687
0.000214763
0.000214837
0.00021491
0.000214981
0.000215051
0.000215118
0.000215184
0.000215247
0.000215307
0.000215364
0.000215418
0.000215468
0.000215514
0.000215556
0.000215594
0.000215627
0.000215654
0.000215676
0.000215692
0.000215702
0.000215705
0.000215702
0.000215692
0.000215674
0.000215649
0.000215618
0.000215577
0.000215527
0.000215471
0.000215409
0.000215343
0.000215274
0.000215205
0.000215135
0.000215066
0.000214999
0.000214934
0.000214869
0.000214802
0.000214734
0.000214664
0.000214592
0.000214517
0.000214439
0.000214359
0.000214277
0.000214196
0.000214116
0.000214043
0.000213982
0.000213941
0.000213931
0.00021396
0.000214037
0.000214164
0.000214335
0.000214542
0.000214787
0.00021507
0.000215386
0.000215728
0.000216092
0.000216477
0.000216879
0.000217299
0.000217736
0.00021819
0.00021866
0.000219152
0.000219674
0.000220258
0.000221142
0.00022309
0.000232915
0.000265717
0.000265743
0.000261064
0.000253967
0.000248249
0.000243171
0.000240487
0.000236199
0.000231206
0.000225452
0.000220199
0.000128477
0.000190152
0.000204942
0.000209596
0.000211511
0.000212447
0.000212951
0.000213241
0.00021342
0.000213544
0.000213644
0.000213735
0.000213821
0.000213904
0.000213987
0.000214068
0.00021415
0.000214231
0.000214312
0.000214393
0.000214474
0.000214554
0.000214633
0.000214711
0.000214789
0.000214865
0.000214941
0.000215014
0.000215087
0.000215157
0.000215226
0.000215292
0.000215356
0.000215417
0.000215475
0.000215529
0.00021558
0.000215628
0.000215671
0.000215709
0.000215743
0.000215772
0.000215796
0.000215813
0.000215825
0.00021583
0.000215829
0.000215821
0.000215807
0.000215785
0.000215756
0.00021572
0.000215675
0.000215622
0.000215563
0.000215498
0.000215429
0.000215358
0.000215287
0.000215215
0.000215145
0.000215075
0.000215004
0.000214933
0.000214859
0.000214784
0.000214706
0.000214627
0.000214545
0.000214462
0.000214378
0.000214296
0.000214218
0.000214148
0.000214093
0.000214061
0.000214064
0.000214109
0.000214201
0.000214335
0.000214503
0.000214711
0.000214956
0.000215236
0.000215549
0.000215889
0.000216252
0.000216637
0.000217042
0.000217467
0.000217912
0.000218377
0.000218862
0.000219372
0.000219902
0.000220485
0.000221286
0.000223215
0.000231958
0.000258317
0.000258352
0.000257279
0.000252211
0.000247184
0.000242747
0.00024066
0.000236728
0.000232104
0.000226348
0.000220728
0.000128478
0.00019017
0.000204961
0.000209621
0.000211542
0.000212483
0.000212992
0.000213285
0.000213468
0.000213596
0.0002137
0.000213793
0.000213878
0.000213961
0.000214044
0.000214125
0.000214207
0.000214288
0.000214369
0.00021445
0.00021453
0.00021461
0.000214688
0.000214766
0.000214844
0.00021492
0.000214994
0.000215068
0.00021514
0.00021521
0.000215278
0.000215344
0.000215408
0.000215469
0.000215527
0.000215582
0.000215634
0.000215682
0.000215726
0.000215765
0.0002158
0.00021583
0.000215855
0.000215874
0.000215887
0.000215895
0.000215896
0.000215891
0.000215879
0.000215861
0.000215836
0.000215804
0.000215766
0.000215721
0.000215668
0.000215609
0.000215546
0.000215479
0.000215411
0.000215341
0.000215271
0.0002152
0.000215127
0.000215052
0.000214975
0.000214896
0.000214815
0.000214731
0.000214647
0.000214562
0.000214478
0.000214397
0.000214322
0.000214258
0.000214211
0.00021419
0.000214205
0.000214261
0.00021436
0.000214496
0.000214668
0.000214877
0.000215122
0.000215403
0.000215716
0.000216057
0.000216422
0.00021681
0.000217221
0.000217654
0.000218109
0.000218587
0.000219086
0.000219612
0.000220143
0.000220706
0.000221429
0.000223357
0.000231328
0.000253156
0.000253207
0.00025417
0.000250405
0.00024561
0.000241792
0.000240305
0.000236878
0.00023272
0.000227032
0.000221152
0.000128473
0.000190188
0.000204982
0.000209649
0.000211578
0.000212524
0.000213037
0.000213333
0.000213519
0.000213649
0.000213753
0.000213843
0.000213927
0.000214008
0.000214089
0.000214169
0.00021425
0.00021433
0.00021441
0.000214489
0.000214569
0.000214647
0.000214725
0.000214803
0.000214879
0.000214955
0.000215029
0.000215103
0.000215174
0.000215245
0.000215313
0.000215379
0.000215443
0.000215505
0.000215563
0.000215619
0.000215671
0.00021572
0.000215765
0.000215806
0.000215842
0.000215874
0.0002159
0.000215922
0.000215937
0.000215947
0.000215951
0.000215948
0.00021594
0.000215925
0.000215903
0.000215875
0.000215842
0.000215802
0.000215756
0.000215706
0.00021565
0.00021559
0.000215526
0.00021546
0.000215391
0.00021532
0.000215246
0.00021517
0.000215092
0.00021501
0.000214927
0.000214841
0.000214755
0.000214669
0.000214585
0.000214506
0.000214436
0.000214379
0.000214341
0.000214331
0.000214355
0.00021442
0.000214525
0.000214668
0.000214843
0.000215055
0.000215304
0.000215588
0.000215904
0.000216247
0.000216615
0.000217008
0.000217426
0.000217868
0.000218334
0.000218825
0.000219339
0.000219879
0.000220409
0.000220944
0.000221616
0.000223552
0.000230929
0.000249341
0.00024941
0.000251636
0.000248638
0.000243656
0.000240537
0.000239658
0.00023678
0.000233177
0.000227687
0.000221614
0.000128462
0.000190207
0.000205007
0.000209682
0.000211619
0.000212571
0.000213087
0.000213387
0.000213573
0.000213703
0.000213805
0.000213892
0.000213973
0.000214052
0.00021413
0.000214209
0.000214288
0.000214366
0.000214445
0.000214523
0.000214602
0.00021468
0.000214757
0.000214834
0.00021491
0.000214986
0.00021506
0.000215133
0.000215205
0.000215275
0.000215344
0.000215411
0.000215476
0.000215538
0.000215598
0.000215654
0.000215708
0.000215758
0.000215805
0.000215847
0.000215885
0.000215919
0.000215948
0.000215971
0.00021599
0.000216002
0.000216009
0.00021601
0.000216004
0.000215993
0.000215975
0.000215951
0.000215922
0.000215886
0.000215845
0.0002158
0.00021575
0.000215696
0.000215638
0.000215577
0.000215512
0.000215444
0.000215372
0.000215297
0.000215219
0.000215137
0.000215052
0.000214965
0.000214878
0.000214792
0.000214709
0.000214633
0.000214567
0.000214516
0.000214487
0.000214485
0.000214519
0.000214592
0.000214705
0.000214852
0.000215033
0.00021525
0.000215504
0.000215792
0.00021611
0.000216456
0.00021683
0.000217229
0.000217655
0.000218108
0.000218587
0.000219092
0.000219621
0.000220176
0.000220691
0.000221214
0.000221866
0.000223834
0.000230736
0.000246373
0.000246472
0.000249569
0.000247095
0.000241625
0.000238928
0.000238651
0.000236126
0.000233264
0.000228105
0.000222004
0.000128446
0.000190227
0.000205034
0.00020972
0.000211666
0.000212625
0.000213145
0.000213447
0.000213634
0.000213762
0.000213859
0.000213942
0.00021402
0.000214096
0.000214173
0.000214249
0.000214326
0.000214403
0.00021448
0.000214558
0.000214635
0.000214712
0.000214789
0.000214866
0.000214942
0.000215017
0.000215091
0.000215165
0.000215237
0.000215308
0.000215377
0.000215444
0.00021551
0.000215573
0.000215634
0.000215692
0.000215748
0.0002158
0.000215848
0.000215893
0.000215933
0.000215969
0.000216001
0.000216027
0.000216048
0.000216064
0.000216074
0.000216078
0.000216077
0.000216069
0.000216056
0.000216036
0.000216011
0.00021598
0.000215944
0.000215903
0.000215858
0.000215808
0.000215755
0.000215699
0.000215639
0.000215575
0.000215508
0.000215436
0.00021536
0.00021528
0.000215197
0.00021511
0.000215023
0.000214937
0.000214855
0.000214781
0.000214719
0.000214674
0.000214652
0.000214658
0.0002147
0.00021478
0.0002149
0.000215053
0.00021524
0.000215462
0.00021572
0.000216011
0.000216333
0.000216685
0.000217065
0.000217473
0.000217909
0.000218374
0.000218867
0.000219388
0.000219935
0.000220505
0.000221001
0.000221526
0.000222186
0.000224204
0.000230697
0.000243782
0.000243998
0.000247906
0.000245802
0.000239707
0.000237181
0.000237383
0.000234867
0.000232767
0.0002281
0.000222339
0.000128424
0.000190247
0.000205063
0.000209762
0.000211718
0.000212685
0.00021321
0.000213513
0.000213699
0.000213822
0.000213915
0.000213995
0.00021407
0.000214143
0.000214217
0.000214292
0.000214367
0.000214442
0.000214518
0.000214594
0.000214671
0.000214747
0.000214824
0.0002149
0.000214975
0.000215051
0.000215125
0.000215199
0.000215271
0.000215343
0.000215413
0.000215481
0.000215548
0.000215613
0.000215675
0.000215735
0.000215792
0.000215846
0.000215896
0.000215943
0.000215986
0.000216025
0.00021606
0.000216089
0.000216114
0.000216133
0.000216147
0.000216156
0.000216158
0.000216155
0.000216146
0.000216132
0.000216111
0.000216085
0.000216054
0.000216018
0.000215978
0.000215933
0.000215885
0.000215833
0.000215777
0.000215718
0.000215655
0.000215588
0.000215516
0.000215441
0.000215361
0.000215277
0.000215192
0.000215108
0.000215028
0.000214956
0.000214897
0.000214857
0.00021484
0.000214853
0.000214901
0.000214988
0.000215112
0.000215271
0.000215464
0.000215691
0.000215953
0.000216248
0.000216575
0.000216934
0.000217322
0.00021774
0.000218188
0.000218668
0.000219177
0.000219716
0.000220283
0.000220857
0.000221344
0.00022188
0.00022257
0.000224648
0.000230774
0.000241683
0.000241981
0.000246589
0.000244759
0.000237937
0.000235595
0.000235743
0.000233393
0.000231569
0.000227477
0.000222562
0.000128396
0.000190268
0.000205096
0.000209808
0.000211777
0.000212752
0.000213282
0.000213584
0.000213765
0.000213884
0.000213974
0.00021405
0.000214122
0.000214193
0.000214265
0.000214337
0.00021441
0.000214484
0.000214559
0.000214634
0.000214709
0.000214785
0.000214861
0.000214937
0.000215012
0.000215087
0.000215162
0.000215236
0.000215309
0.000215381
0.000215452
0.000215522
0.00021559
0.000215656
0.00021572
0.000215782
0.000215841
0.000215897
0.00021595
0.000216
0.000216046
0.000216088
0.000216125
0.000216159
0.000216187
0.000216211
0.000216229
0.000216242
0.00021625
0.000216251
0.000216248
0.000216238
0.000216223
0.000216203
0.000216177
0.000216147
0.000216112
0.000216073
0.000216029
0.000215982
0.000215931
0.000215876
0.000215818
0.000215756
0.00021569
0.000215619
0.000215545
0.000215467
0.000215387
0.000215306
0.00021523
0.000215161
0.000215105
0.000215068
0.000215055
0.000215073
0.000215126
0.000215217
0.000215346
0.000215509
0.000215706
0.000215938
0.000216204
0.000216504
0.000216838
0.000217204
0.000217602
0.000218032
0.000218494
0.000218989
0.000219517
0.000220077
0.000220667
0.000221227
0.000221721
0.000222275
0.000223012
0.00022515
0.00023094
0.000240077
0.000240404
0.000245551
0.000243891
0.000236137
0.00023411
0.000233878
0.000231758
0.000230058
0.000226546
0.000222479
0.000128362
0.00019029
0.000205131
0.000209859
0.000211842
0.000212826
0.000213357
0.000213656
0.000213834
0.000213949
0.000214035
0.000214108
0.000214178
0.000214246
0.000214315
0.000214385
0.000214457
0.000214529
0.000214603
0.000214677
0.000214751
0.000214826
0.000214901
0.000214977
0.000215052
0.000215127
0.000215202
0.000215277
0.000215351
0.000215424
0.000215496
0.000215566
0.000215636
0.000215703
0.000215769
0.000215833
0.000215895
0.000215953
0.000216009
0.000216062
0.000216111
0.000216157
0.000216198
0.000216236
0.000216269
0.000216297
0.00021632
0.000216338
0.000216351
0.000216358
0.00021636
0.000216356
0.000216348
0.000216333
0.000216314
0.00021629
0.000216261
0.000216227
0.00021619
0.000216148
0.000216102
0.000216053
0.000216
0.000215943
0.000215883
0.000215819
0.000215751
0.00021568
0.000215607
0.000215534
0.000215463
0.000215399
0.000215347
0.000215313
0.000215304
0.000215324
0.00021538
0.000215473
0.000215604
0.000215771
0.000215972
0.000216207
0.000216478
0.000216783
0.000217123
0.000217497
0.000217905
0.000218348
0.000218826
0.000219339
0.000219888
0.000220472
0.00022108
0.000221621
0.000222132
0.00022271
0.000223504
0.000225702
0.000231177
0.00023892
0.00023924
0.000244721
0.000243134
0.000234538
0.000232674
0.000231976
0.000229965
0.000228244
0.000225166
0.000221646
0.000128322
0.000190312
0.000205168
0.000209915
0.000211912
0.000212903
0.000213434
0.00021373
0.000213904
0.000214016
0.000214099
0.000214169
0.000214235
0.000214301
0.000214368
0.000214437
0.000214506
0.000214577
0.000214649
0.000214722
0.000214796
0.00021487
0.000214945
0.00021502
0.000215096
0.000215171
0.000215246
0.000215321
0.000215396
0.00021547
0.000215543
0.000215615
0.000215686
0.000215755
0.000215823
0.00021589
0.000215954
0.000216015
0.000216074
0.00021613
0.000216183
0.000216233
0.000216279
0.000216321
0.000216358
0.000216391
0.00021642
0.000216444
0.000216462
0.000216476
0.000216484
0.000216487
0.000216485
0.000216477
0.000216465
0.000216448
0.000216426
0.000216399
0.000216368
0.000216333
0.000216293
0.00021625
0.000216203
0.000216152
0.000216098
0.000216041
0.000215981
0.000215918
0.000215853
0.000215789
0.000215727
0.000215671
0.000215625
0.000215596
0.000215589
0.000215612
0.000215669
0.000215763
0.000215895
0.000216062
0.000216265
0.000216504
0.000216778
0.000217087
0.000217433
0.000217816
0.000218234
0.000218691
0.000219185
0.000219719
0.000220291
0.000220901
0.000221498
0.000222039
0.000222573
0.000223182
0.000224042
0.000226298
0.0002315
0.00023827
0.000238573
0.000244027
0.000242408
0.000233081
0.000231225
0.000230079
0.000228044
0.000226258
0.00022358
0.000220634
0.000128276
0.000190336
0.000205209
0.000209974
0.000211987
0.000212982
0.00021351
0.000213806
0.000213977
0.000214085
0.000214164
0.000214231
0.000214295
0.000214359
0.000214424
0.00021449
0.000214558
0.000214628
0.000214699
0.000214771
0.000214843
0.000214917
0.000214992
0.000215067
0.000215142
0.000215217
0.000215293
0.000215369
0.000215444
0.000215519
0.000215594
0.000215667
0.00021574
0.000215812
0.000215882
0.000215951
0.000216018
0.000216083
0.000216145
0.000216205
0.000216262
0.000216316
0.000216366
0.000216413
0.000216456
0.000216495
0.000216529
0.000216559
0.000216584
0.000216605
0.00021662
0.000216631
0.000216636
0.000216636
0.000216631
0.000216622
0.000216608
0.000216589
0.000216565
0.000216537
0.000216505
0.000216469
0.000216429
0.000216385
0.000216339
0.000216289
0.000216237
0.000216183
0.000216128
0.000216074
0.000216022
0.000215977
0.000215941
0.000215919
0.000215917
0.000215943
0.000216001
0.000216094
0.000216224
0.000216391
0.000216594
0.000216833
0.000217109
0.000217421
0.000217772
0.000218161
0.000218591
0.000219061
0.000219573
0.000220128
0.000220726
0.000221355
0.000221929
0.000222482
0.000223044
0.00022369
0.000224621
0.000226936
0.000231915
0.000238033
0.00023833
0.000243392
0.000241708
0.000231829
0.000229857
0.000228304
0.000226166
0.00022437
0.000222064
0.000219658
0.000128224
0.000190359
0.000205252
0.000210038
0.000212062
0.00021306
0.000213589
0.000213883
0.00021405
0.000214154
0.000214231
0.000214295
0.000214357
0.000214418
0.000214481
0.000214546
0.000214613
0.000214681
0.000214751
0.000214822
0.000214894
0.000214967
0.000215041
0.000215116
0.000215191
0.000215267
0.000215343
0.00021542
0.000215496
0.000215572
0.000215648
0.000215724
0.000215799
0.000215873
0.000215946
0.000216017
0.000216087
0.000216155
0.000216222
0.000216286
0.000216347
0.000216406
0.000216462
0.000216514
0.000216563
0.000216608
0.000216649
0.000216686
0.000216718
0.000216746
0.000216769
0.000216788
0.000216801
0.00021681
0.000216814
0.000216813
0.000216808
0.000216798
0.000216783
0.000216764
0.000216741
0.000216713
0.000216681
0.000216646
0.000216608
0.000216567
0.000216524
0.00021648
0.000216435
0.000216392
0.000216351
0.000216318
0.000216293
0.000216282
0.000216289
0.000216319
0.000216379
0.000216471
0.000216599
0.000216763
0.000216963
0.000217201
0.000217476
0.00021779
0.000218143
0.000218538
0.000218976
0.00021946
0.00021999
0.000220568
0.000221192
0.000221803
0.000222378
0.000222949
0.000223544
0.000224231
0.00022524
0.000227613
0.000232408
0.000238043
0.000238341
0.000242663
0.00024105
0.000230837
0.000228807
0.000226808
0.000224721
0.000222984
0.000220959
0.000218935
0.000128166
0.000190384
0.000205297
0.000210105
0.000212138
0.000213138
0.00021367
0.00021396
0.000214124
0.000214225
0.000214298
0.000214361
0.00021442
0.00021448
0.000214541
0.000214604
0.000214669
0.000214736
0.000214805
0.000214875
0.000214947
0.000215019
0.000215093
0.000215168
0.000215244
0.00021532
0.000215397
0.000215474
0.000215552
0.000215629
0.000215707
0.000215784
0.000215861
0.000215938
0.000216013
0.000216088
0.000216162
0.000216234
0.000216304
0.000216373
0.000216439
0.000216503
0.000216564
0.000216623
0.000216678
0.00021673
0.000216778
0.000216823
0.000216863
0.0002169
0.000216932
0.000216959
0.000216982
0.000217001
0.000217014
0.000217024
0.000217028
0.000217028
0.000217024
0.000217015
0.000217001
0.000216984
0.000216962
0.000216937
0.000216908
0.000216877
0.000216844
0.000216811
0.000216777
0.000216746
0.000216718
0.000216696
0.000216684
0.000216685
0.000216703
0.000216742
0.000216806
0.000216899
0.000217024
0.000217184
0.00021738
0.000217614
0.000217886
0.000218198
0.000218551
0.000218949
0.000219394
0.00021989
0.000220438
0.00022104
0.000221671
0.00022226
0.000222844
0.000223439
0.000224071
0.000224806
0.000225895
0.000228324
0.000232946
0.000238147
0.00023842
0.000241784
0.000240505
0.000230195
0.000228169
0.000225805
0.000223861
0.000222131
0.000220297
0.000218496
0.000128102
0.000190409
0.000205345
0.000210174
0.000212215
0.000213217
0.000213751
0.000214038
0.000214198
0.000214296
0.000214367
0.000214427
0.000214484
0.000214542
0.000214602
0.000214664
0.000214728
0.000214793
0.000214861
0.000214931
0.000215002
0.000215074
0.000215148
0.000215223
0.000215298
0.000215375
0.000215453
0.000215531
0.00021561
0.000215689
0.000215769
0.000215848
0.000215928
0.000216007
0.000216086
0.000216164
0.000216241
0.000216318
0.000216393
0.000216466
0.000216538
0.000216608
0.000216675
0.00021674
0.000216803
0.000216862
0.000216919
0.000216972
0.000217021
0.000217067
0.000217108
0.000217146
0.000217179
0.000217209
0.000217234
0.000217254
0.00021727
0.000217282
0.000217289
0.000217292
0.00021729
0.000217284
0.000217274
0.000217261
0.000217244
0.000217224
0.000217203
0.000217182
0.00021716
0.000217141
0.000217126
0.000217117
0.000217117
0.00021713
0.00021716
0.000217209
0.000217281
0.000217378
0.000217503
0.00021766
0.000217851
0.000218078
0.000218344
0.000218651
0.000219001
0.000219399
0.000219848
0.000220353
0.000220919
0.00022154
0.000222139
0.000222728
0.000223328
0.000223952
0.000224624
0.000225413
0.000226584
0.000229063
0.000233521
0.000238348
0.00023859
0.000241121
0.000240097
0.000229874
0.000227931
0.000225345
0.000223522
0.000221713
0.00021998
0.000218287
0.000128032
0.000190435
0.000205395
0.000210242
0.000212292
0.000213298
0.000213833
0.000214117
0.000214273
0.000214368
0.000214436
0.000214494
0.00021455
0.000214606
0.000214664
0.000214725
0.000214788
0.000214852
0.000214919
0.000214988
0.000215059
0.000215131
0.000215205
0.00021528
0.000215356
0.000215433
0.000215512
0.000215591
0.000215672
0.000215753
0.000215834
0.000215916
0.000215998
0.000216081
0.000216163
0.000216245
0.000216326
0.000216407
0.000216487
0.000216566
0.000216643
0.00021672
0.000216794
0.000216867
0.000216937
0.000217005
0.00021707
0.000217132
0.000217191
0.000217247
0.0002173
0.000217349
0.000217394
0.000217436
0.000217473
0.000217506
0.000217535
0.00021756
0.000217581
0.000217597
0.000217609
0.000217617
0.000217621
0.000217621
0.000217618
0.000217613
0.000217605
0.000217597
0.00021759
0.000217584
0.000217582
0.000217586
0.000217599
0.000217624
0.000217665
0.000217724
0.000217804
0.000217908
0.000218036
0.000218193
0.00021838
0.0002186
0.000218858
0.000219156
0.000219499
0.000219892
0.000220342
0.000220854
0.000221431
0.000222028
0.000222612
0.000223209
0.00022383
0.000224487
0.000225204
0.000226051
0.000227305
0.000229825
0.00023411
0.000238596
0.000238822
0.000240672
0.000239784
0.000229796
0.000228014
0.000225285
0.000223585
0.000221665
0.000219952
0.000218266
0.000127956
0.000190461
0.000205446
0.000210307
0.000212368
0.00021338
0.000213915
0.000214195
0.000214348
0.00021444
0.000214506
0.000214562
0.000214616
0.000214671
0.000214728
0.000214787
0.000214849
0.000214913
0.000214979
0.000215047
0.000215118
0.00021519
0.000215264
0.000215339
0.000215416
0.000215494
0.000215574
0.000215655
0.000215736
0.000215819
0.000215903
0.000215988
0.000216073
0.000216158
0.000216244
0.00021633
0.000216416
0.000216502
0.000216587
0.000216672
0.000216756
0.000216839
0.000216921
0.000217002
0.00021708
0.000217157
0.000217232
0.000217305
0.000217375
0.000217443
0.000217508
0.000217569
0.000217628
0.000217683
0.000217734
0.000217782
0.000217826
0.000217866
0.000217902
0.000217934
0.000217962
0.000217986
0.000218006
0.000218023
0.000218036
0.000218047
0.000218055
0.000218063
0.000218071
0.000218081
0.000218094
0.000218112
0.000218138
0.000218175
0.000218225
0.000218293
0.000218381
0.00021849
0.000218624
0.000218783
0.000218968
0.000219183
0.000219433
0.00021972
0.000220053
0.000220437
0.000220881
0.000221394
0.000221953
0.000222514
0.000223094
0.000223703
0.00022435
0.000225043
0.00022581
0.00022672
0.000228057
0.000230608
0.000234723
0.000238895
0.000239115
0.000240343
0.000239961
0.000230162
0.000228302
0.000225521
0.000223978
0.00022195
0.000220174
0.000218385
0.000127875
0.000190488
0.000205499
0.000210373
0.000212444
0.000213464
0.000213997
0.000214273
0.000214423
0.000214512
0.000214576
0.00021463
0.000214683
0.000214736
0.000214792
0.000214851
0.000214912
0.000214975
0.000215041
0.000215108
0.000215178
0.00021525
0.000215324
0.0002154
0.000215478
0.000215557
0.000215638
0.00021572
0.000215804
0.000215889
0.000215975
0.000216062
0.000216151
0.00021624
0.00021633
0.00021642
0.000216511
0.000216602
0.000216693
0.000216785
0.000216876
0.000216966
0.000217056
0.000217146
0.000217234
0.000217321
0.000217407
0.000217491
0.000217573
0.000217654
0.000217732
0.000217808
0.000217881
0.000217951
0.000218019
0.000218083
0.000218144
0.000218202
0.000218256
0.000218306
0.000218353
0.000218396
0.000218435
0.00021847
0.000218502
0.000218532
0.000218559
0.000218585
0.00021861
0.000218637
0.000218667
0.000218701
0.000218741
0.00021879
0.000218851
0.000218927
0.000219021
0.000219135
0.000219272
0.000219432
0.000219618
0.00021983
0.000220072
0.00022035
0.000220668
0.000221038
0.00022147
0.000221956
0.000222464
0.000223007
0.000223588
0.000224212
0.000224887
0.000225621
0.000226441
0.000227421
0.000228842
0.000231425
0.000235399
0.000239325
0.000239521
0.000239958
0.000240226
0.000230773
0.000228713
0.000225982
0.000224593
0.000222466
0.000220582
0.000218608
0.000127787
0.000190515
0.000205552
0.000210438
0.00021252
0.000213547
0.000214078
0.000214351
0.000214497
0.000214584
0.000214646
0.000214699
0.00021475
0.000214803
0.000214857
0.000214915
0.000214975
0.000215038
0.000215103
0.000215171
0.000215241
0.000215313
0.000215387
0.000215464
0.000215542
0.000215622
0.000215705
0.000215789
0.000215874
0.000215962
0.00021605
0.000216141
0.000216232
0.000216325
0.00021642
0.000216515
0.000216611
0.000216708
0.000216806
0.000216904
0.000217002
0.000217101
0.0002172
0.000217299
0.000217398
0.000217496
0.000217593
0.00021769
0.000217786
0.000217881
0.000217974
0.000218066
0.000218155
0.000218243
0.000218329
0.000218412
0.000218493
0.000218571
0.000218646
0.000218717
0.000218785
0.00021885
0.000218911
0.000218968
0.000219023
0.000219074
0.000219123
0.00021917
0.000219216
0.000219262
0.00021931
0.000219361
0.000219417
0.000219479
0.000219552
0.000219636
0.000219736
0.000219853
0.00021999
0.00022015
0.000220334
0.000220542
0.000220779
0.000221047
0.000221352
0.000221701
0.000222089
0.000222513
0.000222985
0.000223512
0.000224096
0.000224736
0.000225442
0.000226219
0.000227098
0.000228152
0.000229659
0.000232284
0.00023616
0.000239917
0.000240091
0.000239765
0.000240648
0.000231593
0.000229229
0.000226605
0.000225331
0.000223118
0.000221104
0.000218893
0.000127694
0.000190542
0.000205607
0.000210505
0.000212596
0.00021363
0.000214159
0.000214428
0.000214571
0.000214655
0.000214716
0.000214767
0.000214817
0.000214869
0.000214923
0.00021498
0.00021504
0.000215102
0.000215167
0.000215234
0.000215304
0.000215377
0.000215452
0.000215529
0.000215608
0.00021569
0.000215773
0.000215859
0.000215947
0.000216037
0.000216129
0.000216222
0.000216318
0.000216415
0.000216514
0.000216614
0.000216716
0.000216819
0.000216924
0.000217029
0.000217136
0.000217244
0.000217352
0.000217462
0.000217572
0.000217682
0.000217793
0.000217903
0.000218014
0.000218125
0.000218235
0.000218344
0.000218453
0.00021856
0.000218667
0.000218772
0.000218875
0.000218976
0.000219074
0.000219171
0.000219264
0.000219354
0.000219441
0.000219524
0.000219604
0.000219681
0.000219755
0.000219827
0.000219896
0.000219965
0.000220033
0.000220103
0.000220176
0.000220253
0.000220337
0.00022043
0.000220536
0.000220656
0.000220793
0.000220949
0.000221127
0.000221328
0.000221555
0.00022181
0.000222086
0.000222382
0.000222712
0.000223087
0.000223524
0.000224034
0.000224618
0.000225276
0.000226014
0.000226838
0.00022778
0.000228914
0.000230511
0.000233192
0.000237019
0.000240687
0.000240865
0.00024002
0.000241231
0.000232509
0.000229809
0.000227338
0.000226113
0.000223812
0.000221664
0.000219199
0.000127595
0.000190569
0.000205663
0.000210574
0.000212671
0.000213713
0.000214239
0.000214504
0.000214644
0.000214727
0.000214785
0.000214836
0.000214885
0.000214936
0.000214989
0.000215045
0.000215105
0.000215167
0.000215231
0.000215299
0.000215369
0.000215442
0.000215517
0.000215595
0.000215676
0.000215759
0.000215844
0.000215932
0.000216022
0.000216115
0.00021621
0.000216307
0.000216406
0.000216508
0.000216612
0.000216717
0.000216825
0.000216935
0.000217047
0.000217161
0.000217277
0.000217394
0.000217513
0.000217634
0.000217757
0.00021788
0.000218005
0.000218131
0.000218258
0.000218387
0.000218515
0.000218645
0.000218775
0.000218905
0.000219034
0.000219164
0.000219293
0.00021942
0.000219547
0.000219672
0.000219794
0.000219914
0.000220032
0.000220145
0.000220256
0.000220363
0.000220466
0.000220566
0.000220662
0.000220756
0.000220848
0.000220939
0.00022103
0.000221123
0.000221219
0.000221322
0.000221432
0.000221553
0.000221686
0.000221833
0.000221996
0.000222176
0.000222372
0.000222588
0.000222824
0.000223079
0.000223361
0.000223691
0.00022409
0.000224577
0.000225158
0.000225833
0.000226605
0.000227479
0.00022849
0.000229711
0.000231403
0.000234151
0.000237972
0.000241497
0.000241843
0.000241405
0.000242016
0.000233358
0.000230473
0.00022817
0.000226904
0.000224486
0.000222185
0.000219481
0.000127491
0.000190597
0.000205718
0.000210642
0.000212747
0.000213795
0.000214317
0.00021458
0.000214717
0.000214797
0.000214855
0.000214904
0.000214952
0.000215003
0.000215055
0.000215111
0.00021517
0.000215232
0.000215297
0.000215364
0.000215435
0.000215508
0.000215584
0.000215663
0.000215745
0.00021583
0.000215917