/*--------------------------------*- C++ -*----------------------------------*\
| =========                 |                                                 |
| \\      /  F ield         | OpenFOAM: The Open Source CFD Toolbox           |
|  \\    /   O peration     | Version:  v2106                                 |
|   \\  /    A nd           | Website:  www.openfoam.com                      |
|    \\/     M anipulation  |                                                 |
\*---------------------------------------------------------------------------*/
FoamFile
{
    version     2.0;
    format      ascii;
    arch        "LSB;label=32;scalar=64";
    class       volScalarField;
    location    "1";
    object      nut;
}
// * * * * * * * * * * * * * * * * * * * * * * * * * * * * * * * * * * * * * //

dimensions      [0 2 -1 0 0 0 0];

internalField   nonuniform List<scalar> 
29678
(
1.67722e-05
0.000138273
0.000402096
0.000738961
0.00103856
0.00124639
0.00136617
0.0014256
0.00145157
0.00146176
0.00146545
0.00146675
0.00146726
0.00146755
0.00146777
0.00146798
0.00146818
0.00146838
0.00146857
0.00146876
0.00145972
0.00140348
0.00135216
0.00130681
0.00126696
0.00123201
0.00120157
0.00117536
0.00115318
0.00113488
0.00112038
0.00110965
0.00110273
0.00109973
0.0011008
0.00110619
0.00111627
0.00113149
0.00115246
0.00117996
0.00121501
0.0012589
0.00131328
0.00138097
0.00146615
0.00146936
0.00146937
0.00146938
0.00146939
0.0014694
0.00146941
0.00146942
0.00146943
0.00146943
0.00146944
0.00146945
0.00146947
0.00146948
0.0014695
0.00146953
0.00146955
0.00146957
0.00146958
0.00146957
0.00146955
0.00146949
0.00142446
0.0013732
0.00134252
0.00133181
0.00134174
0.00137472
0.00143501
0.0014683
0.00146814
0.00146802
0.00146798
0.00146803
0.0014682
0.00146848
0.00146881
0.00146912
0.00146929
0.00145005
0.00106786
0.000835035
0.000678048
0.000564026
0.00047831
0.000412176
0.000360181
0.000318815
0.00028575
0.000259533
0.000237121
0.000222709
0.000200757
0.000152343
5.25378e-05
0.000220031
0.000171084
5.31285e-05
2.52895e-05
2.47512e-05
3.13539e-05
3.14449e-05
3.83709e-05
4.14045e-05
6.07948e-05
8.90376e-05
1.68103e-05
0.000138323
0.000402245
0.000739187
0.0010388
0.00124659
0.00136633
0.00142574
0.00145171
0.00146191
0.00146562
0.00146695
0.00146749
0.0014678
0.00146803
0.00140845
0.00133128
0.00126132
0.00119861
0.00114232
0.00109195
0.001047
0.00100682
0.000971148
0.000939716
0.000912174
0.000888205
0.000867555
0.000850029
0.000835483
0.000823823
0.000815004
0.000809027
0.000805945
0.00080586
0.000808936
0.000815408
0.000825593
0.000839911
0.000858915
0.000883329
0.000914114
0.000952565
0.00100053
0.00106056
0.00113614
0.00123208
0.00135662
0.0014682
0.00146831
0.00146841
0.0014685
0.00146858
0.00146866
0.00146874
0.00146882
0.0014689
0.00146899
0.00146908
0.00146918
0.00146927
0.00146937
0.00134391
0.00122232
0.0011299
0.00106036
0.00100919
0.000973624
0.000952116
0.000944086
0.000949818
0.000970615
0.00100912
0.00106977
0.00115972
0.00128963
0.00146822
0.00146828
0.00146846
0.00146873
0.00146901
0.00146914
0.00136693
0.000978965
0.000742082
0.000588189
0.000481203
0.000402931
0.000343491
0.000297112
0.000260176
0.000230288
0.000205862
0.000185591
0.000167748
0.000154142
0.000132195
0.000108644
4.5823e-05
0.000241164
0.000241107
6.53948e-05
2.45686e-05
3.19239e-05
2.86006e-05
3.05781e-05
3.16197e-05
3.25797e-05
3.79886e-05
4.08949e-05
1.68467e-05
0.000138394
0.000402463
0.000739524
0.00103915
0.00124689
0.00136657
0.00142594
0.00145189
0.0014621
0.00146583
0.00146719
0.00146775
0.00140058
0.00131039
0.0012305
0.00115982
0.0010966
0.00104012
0.00099004
0.000945653
0.000906446
0.000871665
0.000840933
0.000813947
0.000790346
0.000769809
0.000752084
0.000736978
0.000724348
0.000714094
0.000706161
0.00070053
0.00069722
0.000696291
0.000697849
0.000702045
0.000709093
0.000719273
0.000732955
0.000750621
0.000772908
0.000800672
0.000835127
0.000877811
0.000930802
0.000996955
0.00108021
0.00118649
0.00132518
0.0014675
0.00146769
0.00146786
0.00146803
0.00146818
0.00146833
0.00146847
0.00146862
0.00146877
0.00146892
0.00146907
0.00145928
0.00130037
0.00117854
0.00108556
0.00101512
0.000962813
0.000925769
0.00090222
0.000891372
0.000893186
0.000908491
0.000939163
0.000988392
0.00106062
0.00116194
0.00129799
0.00146706
0.00146888
0.00146915
0.00146932
0.00131946
0.0010056
0.000783327
0.000627107
0.000514633
0.000431613
0.000368062
0.000318071
0.000277907
0.000245086
0.00021787
0.000195096
0.000175453
0.000158294
0.000143438
0.000121984
9.97967e-05
4.39936e-05
0.000212229
0.000199761
9.63513e-05
3.49985e-05
3.54508e-05
3.1525e-05
3.22708e-05
3.39359e-05
3.53118e-05
4.37596e-05
4.4754e-05
1.68959e-05
0.000138475
0.000402715
0.000739918
0.00103957
0.00124725
0.00136684
0.00142615
0.00145208
0.00146229
0.00146603
0.0014674
0.00139199
0.00129836
0.00121655
0.00114508
0.00108206
0.0010262
0.000976934
0.000933496
0.000895103
0.000860953
0.000830455
0.000803287
0.000779216
0.000758006
0.000739441
0.000723339
0.000709557
0.000697986
0.00068855
0.000681208
0.000675948
0.000672789
0.000671784
0.000673024
0.000676637
0.000682801
0.000691748
0.000703777
0.000719274
0.000738734
0.000762796
0.000792286
0.000828213
0.000871778
0.000924623
0.000989225
0.00106871
0.00116767
0.00129206
0.00144986
0.00146756
0.00146777
0.00146797
0.00146816
0.00146835
0.00146853
0.00146871
0.00146889
0.00146907
0.00138577
0.00125057
0.0011429
0.00105835
0.000992811
0.000943077
0.000906805
0.00088247
0.000869238
0.000866824
0.000875538
0.000896276
0.000930422
0.000979393
0.00104377
0.00112221
0.00120809
0.00128054
0.00128097
0.00115461
0.000977945
0.000817616
0.000681156
0.000568992
0.000480197
0.000410049
0.000353905
0.000308303
0.000270757
0.000239468
0.000213094
0.000190704
0.000170959
0.00015435
0.000137853
0.00011857
9.4682e-05
4.43044e-05
0.00017495
0.00020424
9.05033e-05
3.51761e-05
4.01345e-05
3.70495e-05
3.8805e-05
4.30556e-05
4.44505e-05
5.0064e-05
4.30481e-05
1.69579e-05
0.000138559
0.000402983
0.000740339
0.00104002
0.00124763
0.00136713
0.00142637
0.00145227
0.00146247
0.00146622
0.00142046
0.00132433
0.00124019
0.00116742
0.00110301
0.00104595
0.000995288
0.00095032
0.000910394
0.000874884
0.000843199
0.000814856
0.000789525
0.000766968
0.000746984
0.000729401
0.000714074
0.00070089
0.000689762
0.000680632
0.000673467
0.000668262
0.000665038
0.000663846
0.000664767
0.000667918
0.000673456
0.000681582
0.000692555
0.0007067
0.000724425
0.000746239
0.000772771
0.00080478
0.000843169
0.000889061
0.000943865
0.00100914
0.00108664
0.00117799
0.00128536
0.00141009
0.00146763
0.00146787
0.00146809
0.00146831
0.00146853
0.00146874
0.00146895
0.00137816
0.00125943
0.0011564
0.00107038
0.000999888
0.000943346
0.000899139
0.000865825
0.000842301
0.000827866
0.000822082
0.000824856
0.000836331
0.000856585
0.000885169
0.000920698
0.000960433
0.000997228
0.00100949
0.00096987
0.000887986
0.000793183
0.000694762
0.000599373
0.000514842
0.000443522
0.00038435
0.000335274
0.00029433
0.000259904
0.000230723
0.000205783
0.000184346
0.000165192
0.000149694
0.000132195
0.000116262
9.04527e-05
4.5294e-05
0.000146612
0.000164419
9.49913e-05
3.96993e-05
4.36899e-05
4.58392e-05
4.39028e-05
5.21709e-05
5.23336e-05
5.8997e-05
4.94157e-05
1.70333e-05
0.000138646
0.000403258
0.000740775
0.00104049
0.00124803
0.00136744
0.00142661
0.00145246
0.00146265
0.00145703
0.00136022
0.00127429
0.00119967
0.00113318
0.0010739
0.00102108
0.000973911
0.000931745
0.000894019
0.000860233
0.000829935
0.000802744
0.000778364
0.000756568
0.000737174
0.000720027
0.000705001
0.000691996
0.000680934
0.000671763
0.00066445
0.00065899
0.000655399
0.000653717
0.000654015
0.000656387
0.000660964
0.000667912
0.000677441
0.000689809
0.000705335
0.000724405
0.000747479
0.000775096
0.000807879
0.000846537
0.000891852
0.000944578
0.00100529
0.00107398
0.0011494
0.00122924
0.00130937
0.001382
0.00143561
0.00145411
0.00142901
0.00137038
0.00129171
0.00120505
0.00112072
0.00104483
0.000978881
0.000922891
0.000876433
0.000838895
0.000809583
0.000787818
0.000773078
0.000764907
0.000763
0.000767083
0.000776651
0.000790742
0.000807723
0.000824226
0.000831924
0.000817368
0.000778268
0.000727384
0.000666495
0.000597249
0.000527588
0.000463042
0.000405931
0.000356596
0.000314364
0.000278247
0.000247269
0.000220569
0.00019744
0.000177309
0.00015921
0.000144908
0.000127106
0.000114643
8.71041e-05
4.69099e-05
0.000124138
0.00012857
7.96894e-05
4.04192e-05
4.65308e-05
5.74884e-05
5.15366e-05
6.62406e-05
6.42043e-05
7.14104e-05
5.63309e-05
1.71225e-05
0.000138734
0.000403538
0.000741222
0.00104097
0.00124844
0.00136776
0.00142686
0.00145267
0.00146283
0.00139246
0.00130589
0.00123012
0.00116241
0.00110131
0.0010464
0.000997107
0.00095279
0.000912914
0.000877015
0.000844681
0.000815545
0.000789294
0.000765669
0.000744462
0.000725506
0.00070866
0.000693812
0.000680868
0.000669757
0.000660428
0.00065285
0.000647012
0.000642921
0.000640609
0.000640125
0.000641545
0.00064497
0.000650527
0.000658375
0.000668709
0.000681759
0.000697798
0.00071714
0.000740135
0.000767161
0.000798605
0.000834828
0.000876069
0.000922298
0.00097293
0.00102638
0.00107968
0.00112896
0.00117039
0.00119819
0.00120668
0.00119314
0.00115957
0.00111089
0.0010528
0.000993278
0.000937227
0.000886443
0.000842067
0.000804364
0.000773024
0.000747673
0.00072792
0.000713396
0.000703715
0.00069851
0.000697358
0.000699619
0.000704281
0.000709591
0.000711899
0.000704661
0.000683259
0.000651654
0.000614317
0.000569558
0.000518756
0.000466632
0.000416617
0.000370677
0.000329632
0.000293508
0.00026191
0.000234295
0.00021011
0.000188886
0.000170189
0.000153362
0.000140095
0.000122564
0.000113092
8.43259e-05
4.89642e-05
0.000106033
9.88534e-05
6.80489e-05
4.14792e-05
5.31198e-05
7.41938e-05
6.16048e-05
8.41502e-05
7.90379e-05
8.81203e-05
6.75398e-05
1.72263e-05
0.000138823
0.000403823
0.000741678
0.00104147
0.00124888
0.0013681
0.00142712
0.00145288
0.00141388
0.00132898
0.00125337
0.00118593
0.00112435
0.00106836
0.00101762
0.00097169
0.000930104
0.000892448
0.000858347
0.000827465
0.000799504
0.0007742
0.000751333
0.000730718
0.000712202
0.000695659
0.000680985
0.000668096
0.000656925
0.000647422
0.000639555
0.000633309
0.000628683
0.000625697
0.000624384
0.0006248
0.000627017
0.000631126
0.000637242
0.0006455
0.000656059
0.000669097
0.000684809
0.000703401
0.000725069
0.00074998
0.000778229
0.000809764
0.000844269
0.000881001
0.000918568
0.000954771
0.000986667
0.00101107
0.00102492
0.00102626
0.00101503
0.000991739
0.000958814
0.000920076
0.000879385
0.000838882
0.000800094
0.000764727
0.000733695
0.000707288
0.00068535
0.000667563
0.000653608
0.000643169
0.000635889
0.000631332
0.000628872
0.00062751
0.000625451
0.000619583
0.000606156
0.000584598
0.000558311
0.000528676
0.000494141
0.000455542
0.000415377
0.000375867
0.00033856
0.000304333
0.000273493
0.000245965
0.00022148
0.000199709
0.000180371
0.000163143
0.000147652
0.000135223
0.000118406
0.000111277
8.1987e-05
5.1332e-05
9.22564e-05
7.89576e-05
5.82927e-05
4.19254e-05
6.42835e-05
9.55144e-05
7.60058e-05
0.000108708
9.95155e-05
0.000110629
8.25082e-05
1.73453e-05
0.000138913
0.000404111
0.000742142
0.00104198
0.00124933
0.00136846
0.0014274
0.00141995
0.00134044
0.0012667
0.00120092
0.00114051
0.00108491
0.00103393
0.000987295
0.000944713
0.00090587
0.000870462
0.0008382
0.000808818
0.000782075
0.000757758
0.000735678
0.000715677
0.000697621
0.000681395
0.000666908
0.00065408
0.000642852
0.000633174
0.000625014
0.000618351
0.000613179
0.000609507
0.000607354
0.000606755
0.000607758
0.000610425
0.00061483
0.000621061
0.000629216
0.000639401
0.000651722
0.000666278
0.000683142
0.000702339
0.00072381
0.000747357
0.000772564
0.000798702
0.000824636
0.000848781
0.000869213
0.000883923
0.000891096
0.000889558
0.000879347
0.000861355
0.000836968
0.000808778
0.000778846
0.000748691
0.000719634
0.000692218
0.000666942
0.00064448
0.000625207
0.000609119
0.000595924
0.000585302
0.000576902
0.000570317
0.000564959
0.000559879
0.000553488
0.000543563
0.000528387
0.000508616
0.000486323
0.000461779
0.000434196
0.000403878
0.000372083
0.000340294
0.000309685
0.000281025
0.000254688
0.000230749
0.000209103
0.000189584
0.000172052
0.00015626
0.000142049
0.000130292
0.000114501
0.000109058
7.99501e-05
5.38517e-05
8.30375e-05
6.76802e-05
5.1541e-05
4.20619e-05
8.28033e-05
0.000122102
9.62691e-05
0.000141652
0.000127459
0.000140959
0.000103144
1.74802e-05
0.000139004
0.000404402
0.000742614
0.0010425
0.00124979
0.00136882
0.00140695
0.00133772
0.00126871
0.00120609
0.00114824
0.00109449
0.00104462
0.000998457
0.000955822
0.000916546
0.000880435
0.000847282
0.000816877
0.00078902
0.000763523
0.000740215
0.000718942
0.000699571
0.000681986
0.000666088
0.000651793
0.000639033
0.00062775
0.000617898
0.000609444
0.000602365
0.000596647
0.00059229
0.000589302
0.000587701
0.000587513
0.000588776
0.000591531
0.000595827
0.000601717
0.000609251
0.000618472
0.000629405
0.000642044
0.00065633
0.000672124
0.000689172
0.000707054
0.000725134
0.000742527
0.000758106
0.000770595
0.000778743
0.000781539
0.000778381
0.000769402
0.00075532
0.000736967
0.000715545
0.000692357
0.000668682
0.000645752
0.000624133
0.000604009
0.00058539
0.000568569
0.000553907
0.000541448
0.000530976
0.000522122
0.000514479
0.000507508
0.000500364
0.000491804
0.000480422
0.000465547
0.000448006
0.000428897
0.000408123
0.000385482
0.000360986
0.000335274
0.000309307
0.000283958
0.00025984
0.000237302
0.000216477
0.000197361
0.000179901
0.000164047
0.000149602
0.000136546
0.000125356
0.000110768
0.000106444
7.8112e-05
5.63659e-05
7.74611e-05
6.33173e-05
4.70449e-05
4.18372e-05
0.000110989
0.000155688
0.000125632
0.000188432
0.000167094
0.00018179
0.000130664
1.76318e-05
0.000139095
0.000404697
0.000743093
0.00104304
0.00125026
0.00136907
0.00131887
0.0012584
0.00120106
0.0011471
0.00109636
0.00104879
0.00100423
0.000962573
0.000923736
0.000887642
0.000854188
0.000823247
0.000794677
0.000768337
0.000744085
0.00072179
0.00070133
0.000682593
0.000665483
0.000649916
0.000635818
0.000623129
0.000611795
0.000601774
0.000593032
0.000585543
0.00057929
0.000574264
0.000570463
0.000567892
0.00056656
0.000566482
0.000567677
0.000570164
0.000573961
0.000579078
0.000585517
0.000593253
0.000602234
0.000612358
0.000623454
0.000635263
0.000647406
0.000659364
0.000670472
0.000679943
0.000686938
0.000690684
0.000690612
0.000686367
0.000678159
0.000666535
0.000652003
0.000635265
0.000617134
0.000598409
0.000579766
0.00056187
0.000545224
0.00052987
0.000515641
0.00050256
0.000490866
0.000480663
0.000471734
0.000463675
0.000455979
0.000447942
0.000438655
0.000427273
0.0004136
0.000398262
0.0003818
0.00036412
0.000345131
0.000324915
0.000303794
0.000282332
0.000261168
0.000240763
0.000221414
0.000203269
0.000186381
0.000170772
0.00015644
0.000143221
0.000131184
0.000120502
0.000107174
0.000103521
7.64018e-05
5.87312e-05
7.37554e-05
6.30648e-05
4.47022e-05
4.15531e-05
0.000154501
0.000201706
0.000169898
0.000259857
0.000225247
0.000236888
0.000166944
1.7801e-05
0.000139187
0.000404994
0.000743579
0.00104357
0.00125053
0.00128304
0.00123503
0.00118539
0.00113723
0.00109056
0.00104618
0.00100415
0.000964379
0.00092684
0.000891527
0.000858426
0.000827499
0.000798681
0.000771889
0.000747028
0.000723997
0.000702699
0.00068304
0.000664932
0.000648294
0.000633057
0.000619158
0.000606543
0.000595164
0.000584982
0.000575962
0.000568079
0.000561311
0.000555644
0.000551066
0.000547572
0.000545159
0.000543826
0.000543573
0.000544397
0.000546292
0.000549244
0.000553222
0.000558179
0.000564035
0.000570671
0.000577916
0.00058553
0.000593193
0.000600501
0.000606965
0.000612041
0.000615184
0.000615918
0.000613915
0.000608987
0.000601275
0.000591316
0.000579267
0.000565669
0.000551018
0.000535905
0.000520727
0.000505844
0.00049167
0.000478488
0.00046635
0.000455019
0.0004444
0.000434657
0.000425843
0.000417733
0.000409883
0.000401713
0.000392574
0.000381939
0.000369789
0.000356496
0.000342335
0.000327276
0.000311166
0.000294262
0.000276721
0.000258824
0.000241032
0.000223681
0.000207011
0.000191166
0.000176229
0.000162264
0.000149288
0.000137157
0.000126024
0.00011582
0.000103717
0.000100403
7.4785e-05
6.08601e-05
7.07534e-05
6.23553e-05
4.41807e-05
4.15786e-05
0.000226375
0.000277081
0.000241212
0.000387909
0.000316247
0.000311902
0.000214165
1.79889e-05
0.000139281
0.000405294
0.000744069
0.00104406
0.0012314
0.00119859
0.00115829
0.00111856
0.00107741
0.00103704
0.000998228
0.000961051
0.000925528
0.000891695
0.000859593
0.000829255
0.000800689
0.000773876
0.000748775
0.000725331
0.000703478
0.000683146
0.000664267
0.000646772
0.000630597
0.000615685
0.000601984
0.000589446
0.000578029
0.000567696
0.000558415
0.000550158
0.000542903
0.00053663
0.000531322
0.000526967
0.00052355
0.00052106
0.000519482
0.000518802
0.000518995
0.00052003
0.000521863
0.000524431
0.000527646
0.000531387
0.000535498
0.00053977
0.000543946
0.000547717
0.000550732
0.000552619
0.000553025
0.000551658
0.000548332
0.000542925
0.000535588
0.000526732
0.000516446
0.000504991
0.000492816
0.000480259
0.000467659
0.000455209
0.000443195
0.000431761
0.000421088
0.000411177
0.000401819
0.000392894
0.00038445
0.000376502
0.000368805
0.000360924
0.000352383
0.000342827
0.000332241
0.000320817
0.000308708
0.000295876
0.000282204
0.000267977
0.000253295
0.000238281
0.000223242
0.000208428
0.000194024
0.000180161
0.000166932
0.000154416
0.000142635
0.000131474
0.000121136
0.000111389
0.000100424
9.72111e-05
7.32857e-05
6.27148e-05
6.81814e-05
5.93904e-05
4.49182e-05
4.18285e-05
0.00035021
0.000404681
0.000363501
0.000677083
0.000460375
0.000408678
0.000272822
1.81966e-05
0.000139375
0.000405595
0.000744554
0.00104416
0.0011522
0.00112226
0.00108998
0.00105701
0.00102175
0.000986771
0.000952734
0.000919771
0.000887982
0.000857445
0.000828236
0.000800416
0.000774025
0.000749077
0.000725564
0.00070346
0.000682727
0.00066332
0.000645189
0.000628285
0.000612559
0.000597964
0.000584458
0.000571999
0.000560552
0.000550081
0.000540557
0.000531953
0.000524244
0.000517408
0.000511425
0.000506275
0.000501939
0.000498397
0.000495626
0.000493601
0.000492289
0.000491651
0.000491633
0.000492169
0.000493172
0.00049453
0.000496105
0.000497726
0.000499191
0.000500269
0.000500711
0.000500267
0.000498708
0.000495857
0.000491617
0.000485867
0.000478813
0.000470718
0.000461686
0.000451786
0.000441399
0.000430711
0.000420035
0.000409466
0.000399185
0.000389325
0.000379955
0.000371172
0.000362904
0.00035497
0.000347246
0.000339732
0.000332371
0.000324954
0.000317172
0.000308765
0.000299667
0.000289941
0.000279657
0.000268776
0.000257252
0.000245216
0.00023288
0.000220264
0.000207505
0.000194827
0.00018236
0.000170215
0.000158485
0.000147249
0.000136506
0.000126225
0.00011659
0.000107274
9.73335e-05
9.4052e-05
7.19351e-05
6.42694e-05
6.59575e-05
5.62194e-05
4.68165e-05
4.20075e-05
0.000564555
0.000523345
0.000597948
0.00127186
0.000637966
0.000504642
0.000333761
1.84254e-05
0.00013947
0.000405899
0.000745019
0.00104393
0.00107829
0.00105387
0.00102875
0.00100045
0.000970122
0.000939721
0.000909758
0.000880441
0.000851918
0.000824297
0.000797673
0.000772127
0.000747721
0.000724491
0.000702452
0.000681601
0.000661921
0.000643388
0.000625969
0.00060963
0.000594334
0.000580046
0.00056673
0.000554353
0.000542883
0.00053229
0.000522545
0.000513622
0.000505496
0.000498144
0.000491544
0.000485672
0.000480504
0.000476018
0.000472184
0.000468972
0.000466345
0.00046426
0.000462662
0.000461486
0.000460651
0.000460059
0.000459594
0.000459119
0.000458479
0.000457505
0.000456023
0.000453864
0.000450884
0.000446974
0.000442085
0.000436138
0.000429284
0.000421751
0.000413607
0.000404875
0.000395804
0.000386564
0.000377337
0.000368223
0.000359329
0.000350778
0.000342591
0.000334852
0.000327533
0.000320523
0.000313684
0.000306905
0.000300121
0.000293283
0.000286262
0.000278913
0.000271145
0.00026294
0.000254287
0.00024515
0.000235506
0.00022536
0.000214986
0.000204387
0.000193562
0.000182708
0.000171918
0.000161279
0.000150873
0.000140762
0.000130944
0.000121459
0.000112446
0.000103541
9.44899e-05
9.10272e-05
7.07505e-05
6.5496e-05
6.38446e-05
5.38208e-05
5.05194e-05
4.21419e-05
0.000570846
0.000448541
0.00108548
0.00103802
0.000706068
0.000550316
0.000378246
1.8649e-05
0.000139566
0.000406202
0.000745433
0.00102966
0.00101253
0.000992282
0.000972989
0.000948492
0.000922296
0.000895763
0.000869278
0.000843111
0.000817438
0.000792384
0.000768058
0.000744555
0.000721947
0.000700286
0.000679603
0.000659913
0.000641215
0.000623501
0.000606752
0.000590947
0.000576061
0.000562067
0.000548937
0.000536644
0.00052516
0.000514459
0.000504515
0.000495304
0.000486801
0.000478983
0.000471826
0.000465305
0.000459396
0.000454071
0.000449301
0.000445053
0.000441289
0.000437965
0.00043503
0.000432422
0.000430071
0.000427894
0.000425795
0.000423669
0.000421398
0.000418861
0.000415937
0.000412514
0.000408502
0.000403839
0.000398504
0.000392432
0.000385734
0.000378652
0.000371184
0.000363323
0.000355257
0.000347129
0.000339047
0.000331093
0.00032334
0.000315866
0.000308702
0.0003019
0.000295453
0.000289292
0.000283317
0.000277396
0.000271417
0.000265332
0.000259102
0.000252688
0.000246049
0.00023915
0.000231933
0.000224356
0.000216358
0.00020792
0.000199209
0.000190321
0.000181193
0.000171915
0.000162599
0.000153297
0.000144073
0.000134948
0.000125982
0.000117218
0.000108759
0.000100249
9.19452e-05
8.82374e-05
6.97587e-05
6.63943e-05
6.16403e-05
5.25625e-05
5.81324e-05
4.27152e-05
0.000373321
0.00032971
0.00107007
0.000640444
0.00062147
0.000526518
0.000392683
1.86437e-05
0.000139663
0.000406503
0.000745523
0.00097142
0.000954292
0.000937594
0.000921968
0.000900764
0.000878029
0.000854746
0.000831228
0.000807778
0.000784587
0.000761789
0.000739501
0.000717822
0.000696834
0.000676596
0.000657153
0.00063853
0.00062074
0.000603788
0.000587666
0.000572364
0.000557866
0.000544152
0.000531202
0.000518994
0.000507505
0.000496713
0.000486594
0.000477126
0.000468286
0.000460051
0.000452398
0.000445301
0.000438737
0.000432676
0.000427091
0.000421947
0.000417208
0.000412833
0.000408775
0.00040498
0.000401388
0.00039793
0.000394531
0.000391109
0.000387578
0.000383852
0.000379848
0.000375494
0.000370736
0.000365539
0.000359894
0.000353773
0.000347226
0.000340497
0.000333554
0.000326383
0.000319103
0.000311853
0.000304696
0.000297686
0.000290874
0.000284319
0.000278046
0.000272075
0.000266416
0.000261026
0.000255844
0.000250763
0.000245656
0.000240446
0.000235097
0.000229593
0.000223939
0.000218133
0.000212138
0.000205906
0.00019936
0.000192459
0.000185213
0.000177809
0.000170193
0.000162311
0.000154308
0.000146213
0.000138038
0.000129827
0.000121648
0.000113544
0.000105587
9.74562e-05
8.97577e-05
8.57829e-05
6.89759e-05
6.69805e-05
5.95056e-05
4.9742e-05
7.11651e-05
4.3162e-05
0.00024259
0.000251134
0.000652599
0.000430269
0.000498632
0.00046301
0.000377696
1.86379e-05
0.000139759
0.000406794
0.000745305
0.000916738
0.000902316
0.000888859
0.000875415
0.00085695
0.000837083
0.000816512
0.00079552
0.000774412
0.000753379
0.00073256
0.000712072
0.000692017
0.00067248
0.000653528
0.00063521
0.000617563
0.000600609
0.000584361
0.000568823
0.00055399
0.000539856
0.000526409
0.000513633
0.000501511
0.000490026
0.000479158
0.000468888
0.000459195
0.000450058
0.000441455
0.000433365
0.000425764
0.000418626
0.000411927
0.000405638
0.000399727
0.000394161
0.000388902
0.00038391
0.000379138
0.000374537
0.00037005
0.000365621
0.000361188
0.000356687
0.000352061
0.000347253
0.000342218
0.000336925
0.000331358
0.000325518
0.000319386
0.000312985
0.00030655
0.000300051
0.000293435
0.000286789
0.000280256
0.00027385
0.000267622
0.000261605
0.000255842
0.000250347
0.000245129
0.000240194
0.000235514
0.000231045
0.000226722
0.000222438
0.000218105
0.000213668
0.000209094
0.000204388
0.000199557
0.000194602
0.0001895
0.000184195
0.000178622
0.000172737
0.000166638
0.000160355
0.000153781
0.000146958
0.000139957
0.000132753
0.000125405
0.000117968
0.00011048
0.000102987
9.52221e-05
8.79948e-05
8.37765e-05
6.84289e-05
6.7299e-05
5.77497e-05
4.69206e-05
9.27791e-05
4.34697e-05
0.000177348
0.000209972
0.000439116
0.000324854
0.00039955
0.000393887
0.000345875
1.86317e-05
0.000139856
0.000407075
0.000744896
0.000867229
0.000855606
0.000844953
0.000832938
0.00081671
0.000799204
0.000780898
0.000762054
0.000742963
0.000723805
0.000704717
0.000685815
0.000667201
0.00064896
0.000631162
0.000613863
0.000597104
0.000580915
0.000565315
0.000550316
0.000535921
0.000522129
0.000508933
0.000496324
0.000484291
0.000472818
0.00046189
0.000451492
0.000441604
0.000432208
0.000423286
0.000414815
0.000406775
0.000399143
0.000391895
0.000385004
0.000378443
0.000372181
0.000366186
0.000360423
0.000354854
0.000349438
0.000344133
0.000338894
0.000333676
0.000328435
0.000323132
0.00031773
0.000312203
0.000306535
0.00030072
0.00029477
0.000288662
0.000282427
0.000276244
0.000270093
0.000263946
0.000257851
0.000251902
0.000246122
0.000240555
0.000235218
0.000230143
0.000225335
0.000220796
0.00021653
0.000212509
0.000208704
0.000205062
0.000201511
0.000197979
0.000194398
0.000190725
0.000186944
0.000183047
0.00017904
0.000174919
0.000170666
0.000166221
0.000161542
0.000156609
0.000151536
0.000146193
0.00014046
0.000134464
0.0001282
0.000121687
0.00011497
0.000108076
0.000101023
9.36139e-05
8.6744e-05
8.23628e-05
6.81652e-05
6.74753e-05
5.66897e-05
4.35755e-05
0.00013632
4.38272e-05
0.0001424
0.000184008
0.00032912
0.000265307
0.000331015
0.000336752
0.000310584
1.86251e-05
0.000139953
0.000407344
0.000744377
0.000822701
0.000813335
0.00080504
0.000794086
0.000779697
0.000764143
0.000747737
0.000730723
0.000713366
0.000695835
0.000678259
0.000660752
0.000643413
0.000626326
0.000609563
0.000593182
0.000577228
0.000561736
0.00054673
0.000532228
0.000518238
0.000504765
0.000491806
0.000479359
0.000467413
0.000455961
0.000444989
0.000434483
0.00042443
0.000414814
0.000405615
0.000396818
0.000388402
0.000380347
0.000372632
0.000365232
0.000358125
0.000351284
0.000344681
0.000338288
0.000332074
0.000326007
0.000320055
0.000314184
0.000308364
0.000302564
0.000296758
0.000290924
0.000285049
0.000279126
0.000273158
0.000267159
0.000261117
0.000255035
0.000249079
0.00024326
0.000237495
0.00023186
0.000226407
0.000221174
0.000216171
0.000211425
0.000206947
0.000202744
0.000198813
0.000195158
0.000191745
0.000188554
0.000185543
0.000182656
0.000179833
0.000177017
0.000174165
0.000171244
0.000168235
0.000165127
0.000161916
0.000158595
0.000155129
0.000151478
0.000147607
0.000143597
0.000139367
0.00013474
0.000129702
0.000124362
0.000118682
0.000112688
0.000106389
9.97756e-05
9.27007e-05
8.60637e-05
8.16617e-05
6.82199e-05
6.76506e-05
5.69167e-05
4.02046e-05
0.000259723
4.36531e-05
0.00011697
0.000165539
0.000260728
0.000228189
0.000283283
0.000294381
0.000279545
1.8618e-05
0.000140049
0.000407603
0.0007438
0.000782602
0.000774871
0.00076855
0.000758454
0.000745601
0.000731673
0.000716867
0.000701413
0.000685549
0.000669426
0.00065317
0.000636887
0.000620674
0.000604613
0.000588775
0.000573219
0.000557993
0.000543134
0.000528671
0.000514625
0.000501009
0.000487832
0.000475097
0.000462804
0.000450948
0.000439523
0.00042852
0.00041793
0.000407739
0.000397935
0.000388504
0.000379429
0.000370694
0.000362282
0.000354173
0.000346348
0.000338787
0.000331469
0.000324369
0.000317467
0.000310736
0.000304154
0.000297697
0.00029134
0.000285063
0.000278846
0.000272674
0.000266534
0.000260422
0.000254337
0.000248287
0.000242286
0.00023633
0.000230419
0.000224671
0.000219137
0.000213712
0.000208482
0.000203459
0.000198697
0.000194184
0.000189948
0.000185993
0.000182326
0.000178939
0.000175829
0.000172972
0.000170345
0.000167912
0.000165628
0.000163446
0.000161314
0.000159191
0.000157042
0.000154843
0.000152574
0.000150218
0.000147764
0.000145192
0.000142458
0.000139525
0.000136416
0.000133228
0.000129693
0.000125627
0.000121218
0.000116397
0.000111157
0.000105458
9.93048e-05
9.25794e-05
8.61435e-05
8.19174e-05
6.87939e-05
6.79725e-05
5.86484e-05
3.70971e-05
0.00049619
4.38412e-05
9.8456e-05
0.000152363
0.000216284
0.000204723
0.000250272
0.000265145
0.000255489
1.86105e-05
0.000140145
0.000407852
0.000743203
0.000746411
0.000739725
0.000735057
0.000725711
0.000714155
0.000701591
0.000688137
0.000674014
0.000659432
0.00064453
0.000629423
0.000614215
0.000598995
0.000583843
0.00056883
0.000554014
0.000539443
0.000525158
0.000511189
0.000497561
0.00048429
0.000471389
0.000458864
0.000446718
0.000434951
0.000423561
0.000412541
0.000401884
0.000391582
0.000381623
0.000371997
0.000362689
0.000353687
0.000344976
0.000336541
0.000328365
0.000320431
0.000312723
0.000305223
0.000297913
0.000290775
0.000283791
0.000276944
0.000270219
0.000263603
0.000257083
0.000250651
0.000244303
0.000238039
0.000231864
0.000225786
0.000219823
0.000213973
0.000208225
0.00020268
0.00019741
0.000192301
0.000187407
0.000182773
0.000178414
0.000174332
0.000170541
0.000167051
0.000163854
0.000160951
0.000158328
0.00015597
0.000153854
0.000151944
0.000150208
0.000148601
0.000147081
0.000145609
0.000144149
0.000142675
0.000141164
0.000139592
0.000137941
0.000136193
0.000134316
0.000132249
0.000129986
0.000127685
0.000125184
0.000122231
0.000118744
0.000114815
0.000110396
0.000105447
9.99245e-05
9.36167e-05
8.73393e-05
8.3413e-05
7.03663e-05
6.89632e-05
6.3119e-05
3.36348e-05
0.00023006
4.30584e-05
8.86218e-05
0.000141306
0.000185889
0.000189621
0.000227617
0.000246872
0.000239206
1.86025e-05
0.000140241
0.000408048
0.000719318
0.00071367
0.0007077
0.000704247
0.000695591
0.000685134
0.000673714
0.000661403
0.000648416
0.000634936
0.00062109
0.000606985
0.000592717
0.000578373
0.000564028
0.000549749
0.000535595
0.000521614
0.000507847
0.000494327
0.00048108
0.000468126
0.00045548
0.000443152
0.000431148
0.000419471
0.000408121
0.000397095
0.00038639
0.000376
0.000365915
0.000356128
0.000346629
0.000337407
0.00032845
0.000319747
0.000311284
0.000303049
0.000295028
0.000287209
0.000279578
0.000272122
0.000264829
0.000257689
0.000250692
0.000243829
0.000237096
0.000230489
0.00022401
0.000217661
0.00021145
0.000205387
0.000199489
0.000193763