/*--------------------------------*- C++ -*----------------------------------*\
| =========                 |                                                 |
| \\      /  F ield         | OpenFOAM: The Open Source CFD Toolbox           |
|  \\    /   O peration     | Version:  v2106                                 |
|   \\  /    A nd           | Website:  www.openfoam.com                      |
|    \\/     M anipulation  |                                                 |
\*---------------------------------------------------------------------------*/
FoamFile
{
    version     2.0;
    format      ascii;
    arch        "LSB;label=32;scalar=64";
    class       volScalarField;
    location    "1";
    object      omega;
}
// * * * * * * * * * * * * * * * * * * * * * * * * * * * * * * * * * * * * * //

dimensions      [0 0 -1 0 0 0 0];

internalField   nonuniform List<scalar> 
29678
(
6.87834
1.37491
0.509589
0.283568
0.203592
0.17038
0.155795
0.149488
0.14692
0.145963
0.145644
0.145556
0.145545
0.145558
0.145578
0.145601
0.145626
0.145653
0.145681
0.14571
0.14574
0.145772
0.145805
0.14584
0.145875
0.145912
0.145949
0.145987
0.146026
0.146064
0.146103
0.146142
0.14618
0.146217
0.146253
0.146288
0.146321
0.146351
0.14638
0.146405
0.146428
0.146447
0.146463
0.146475
0.146483
0.146487
0.146486
0.146481
0.146472
0.146458
0.14644
0.146418
0.146392
0.146363
0.14633
0.146295
0.146258
0.146218
0.146178
0.146136
0.146094
0.146052
0.146011
0.14597
0.145931
0.145893
0.145856
0.14582
0.145785
0.14575
0.145717
0.145685
0.145654
0.145627
0.145604
0.145588
0.14558
0.145584
0.145602
0.14564
0.145702
0.145795
0.145924
0.146098
0.146327
0.146618
0.146978
0.147416
0.147941
0.14856
0.14928
0.150102
0.151028
0.152092
0.153594
0.15663
0.167408
0.206218
0.47872
1.32382
1.32515
1.04365
0.818329
0.620004
0.499285
0.48357
0.470747
0.478903
0.463636
0.374765
6.87836
1.37448
0.509424
0.283499
0.203564
0.170372
0.1558
0.149502
0.146941
0.145989
0.145676
0.145594
0.145589
0.145608
0.145635
0.145665
0.145698
0.145732
0.14577
0.145809
0.145851
0.145894
0.14594
0.145988
0.146037
0.146087
0.146139
0.146191
0.146244
0.146297
0.14635
0.146401
0.146452
0.146501
0.146547
0.146592
0.146633
0.14667
0.146703
0.146732
0.146756
0.146775
0.146788
0.146795
0.146796
0.146791
0.14678
0.146764
0.146743
0.146716
0.146685
0.146649
0.14661
0.146567
0.146521
0.146473
0.146424
0.146373
0.146322
0.146271
0.14622
0.146171
0.146123
0.146076
0.146033
0.145991
0.14595
0.14591
0.14587
0.145831
0.145792
0.145754
0.145717
0.145684
0.145656
0.145635
0.145625
0.14563
0.145653
0.145701
0.145782
0.145906
0.146086
0.146339
0.146675
0.147103
0.147633
0.148279
0.149052
0.149966
0.151031
0.152256
0.153649
0.155247
0.157292
0.160537
0.170683
0.204069
0.434203
1.1447
1.14509
0.983679
0.81514
0.611768
0.510665
0.465469
0.395721
0.329559
0.257508
0.197778
6.87857
1.37388
0.509179
0.283392
0.203516
0.170354
0.1558
0.149513
0.14696
0.146014
0.145706
0.145628
0.145628
0.145653
0.145686
0.145723
0.145764
0.145808
0.145855
0.145904
0.145956
0.146011
0.146068
0.146127
0.146187
0.146249
0.146312
0.146376
0.14644
0.146504
0.146566
0.146628
0.146688
0.146746
0.146801
0.146853
0.146901
0.146944
0.146983
0.147016
0.147043
0.147063
0.147077
0.147084
0.147083
0.147075
0.14706
0.147037
0.147007
0.146971
0.146929
0.146882
0.146831
0.146776
0.146718
0.146659
0.146597
0.146535
0.146473
0.146411
0.146351
0.146291
0.146234
0.14618
0.146129
0.14608
0.146033
0.145986
0.14594
0.145895
0.145851
0.145809
0.145769
0.145733
0.145703
0.145682
0.145674
0.145683
0.145715
0.145774
0.145873
0.146025
0.146243
0.146536
0.146915
0.147388
0.147967
0.148665
0.149497
0.150476
0.151619
0.15294
0.154457
0.156229
0.158416
0.161748
0.17079
0.201981
0.407602
1.01221
1.01235
0.893894
0.740823
0.592907
0.487445
0.457156
0.385596
0.322092
0.247566
0.191535
6.87871
1.37319
0.5089
0.283269
0.20346
0.170332
0.155797
0.149522
0.146975
0.146034
0.145729
0.145655
0.145658
0.145686
0.145724
0.145766
0.145811
0.145859
0.145911
0.145964
0.146021
0.146079
0.14614
0.146202
0.146267
0.146332
0.146398
0.146465
0.146532
0.146598
0.146664
0.146728
0.146791
0.146851
0.146909
0.146963
0.147013
0.147059
0.147099
0.147134
0.147163
0.147185
0.147201
0.147209
0.147211
0.147204
0.14719
0.147169
0.14714
0.147105
0.147062
0.147014
0.146962
0.146904
0.146844
0.146781
0.146716
0.146649
0.146582
0.146516
0.14645
0.146385
0.146323
0.146264
0.146208
0.146154
0.146101
0.146049
0.145998
0.145949
0.145902
0.145857
0.145815
0.145779
0.14575
0.145732
0.145729
0.145744
0.145782
0.145851
0.145967
0.146138
0.146369
0.146674
0.147064
0.147551
0.148146
0.148864
0.149721
0.150734
0.151921
0.153303
0.154902
0.15679
0.15902
0.162333
0.170148
0.199538
0.381532
0.896783
0.896461
0.836064
0.689441
0.553917
0.452443
0.431791
0.363704
0.312047
0.249173
0.198286
6.87872
1.37248
0.508609
0.283141
0.203402
0.170309
0.155794
0.14953
0.14699
0.146052
0.145749
0.145677
0.145682
0.145712
0.145751
0.145794
0.145841
0.145891
0.145944
0.145999
0.146056
0.146116
0.146177
0.146241
0.146305
0.146371
0.146438
0.146505
0.146573
0.14664
0.146706
0.146771
0.146835
0.146896
0.146954
0.14701
0.147061
0.147108
0.14715
0.147186
0.147217
0.147241
0.147258
0.147269
0.147272
0.147268
0.147256
0.147237
0.147211
0.147178
0.147138
0.147093
0.147041
0.146986
0.146926
0.146863
0.146798
0.146731
0.146664
0.146596
0.146528
0.146462
0.146398
0.146336
0.146277
0.14622
0.146164
0.146109
0.146055
0.146003
0.145954
0.145908
0.145867
0.145832
0.145806
0.145792
0.145794
0.145815
0.145863
0.145946
0.146077
0.146261
0.146509
0.146832
0.147244
0.147755
0.148381
0.149135
0.150036
0.151102
0.152355
0.153819
0.155516
0.157522
0.159788
0.16304
0.169718
0.19744
0.359226
0.797162
0.79708
0.782904
0.645271
0.511427
0.414093
0.404869
0.343675
0.301842
0.244534
0.197193
6.8786
1.37175
0.508316
0.283013
0.203344
0.170288
0.155792
0.149539
0.147004
0.146069
0.145769
0.145697
0.145703
0.145733
0.145773
0.145818
0.145865
0.145915
0.145968
0.146024
0.146082
0.146142
0.146204
0.146267
0.146333
0.146399
0.146466
0.146534
0.146602
0.14667
0.146738
0.146804
0.146869
0.146931
0.146991
0.147048
0.147101
0.14715
0.147194
0.147233
0.147266
0.147292
0.147312
0.147325
0.147331
0.147329
0.14732
0.147304
0.14728
0.14725
0.147213
0.147169
0.14712
0.147066
0.147008
0.146945
0.14688
0.146814
0.146745
0.146677
0.146608
0.146541
0.146475
0.146413
0.146351
0.146292
0.146233
0.146176
0.14612
0.146067
0.146017
0.145971
0.145931
0.145898
0.145876
0.145867
0.145876
0.145906
0.145968
0.146068
0.146214
0.146415
0.146686
0.147036
0.147478
0.148025
0.148691
0.149494
0.150452
0.151586
0.152919
0.154475
0.156282
0.158404
0.160702
0.163873
0.169659
0.195881
0.339265
0.708249
0.708999
0.739851
0.612503
0.460734
0.376569
0.374109
0.321903
0.289306
0.238784
0.196206
6.87834
1.37102
0.508022
0.282887
0.20329
0.170269
0.155793
0.14955
0.147021
0.146089
0.145789
0.145718
0.145724
0.145755
0.145795
0.14584
0.145888
0.145938
0.145992
0.146048
0.146106
0.146166
0.146229
0.146293
0.146359
0.146427
0.146495
0.146564
0.146633
0.146703
0.146771
0.146839
0.146906
0.146971
0.147033
0.147092
0.147147
0.147199
0.147246
0.147287
0.147323
0.147353
0.147376
0.147393
0.147402
0.147404
0.147398
0.147385
0.147364
0.147337
0.147302
0.147261
0.147214
0.147162
0.147105
0.147044
0.146979
0.146912
0.146843
0.146773
0.146703
0.146634
0.146568
0.146503
0.14644
0.146378
0.146318
0.146259
0.146202
0.146148
0.146097
0.146052
0.146013
0.145984
0.145966
0.145964
0.145981
0.146025
0.146103
0.146221
0.146386
0.146611
0.146909
0.147291
0.14777
0.148359
0.149076
0.149937
0.150963
0.152175
0.1536
0.155262
0.15719
0.159433
0.161726
0.164883
0.17011
0.195227
0.321943
0.627704
0.630084
0.69912
0.584758
0.407614
0.34031
0.341526
0.297856
0.273968
0.23004
0.192646
6.87792
1.37028
0.507731
0.282764
0.203238
0.170253
0.155796
0.149564
0.147041
0.146111
0.145811
0.14574
0.145747
0.145779
0.145819
0.145864
0.145912
0.145963
0.146017
0.146073
0.146132
0.146193
0.146257
0.146322
0.146389
0.146457
0.146527
0.146597
0.146668
0.146739
0.14681
0.14688
0.146949
0.147016
0.147081
0.147143
0.147201
0.147256
0.147306
0.147352
0.147391
0.147425
0.147452
0.147473
0.147486
0.147492
0.14749
0.147481
0.147465
0.14744
0.147409
0.147371
0.147327
0.147277
0.147222
0.147163
0.147099
0.147033
0.146964
0.146893
0.146822
0.146751
0.146682
0.146616
0.14655
0.146486
0.146424
0.146364
0.146306
0.146251
0.146201
0.146157
0.146121
0.146095
0.146083
0.146088
0.146117
0.146177
0.146274
0.146413
0.146601
0.146853
0.147183
0.147603
0.148124
0.148765
0.14954
0.15047
0.151575
0.152878
0.154408
0.156192
0.158258
0.160634
0.162917
0.166121
0.171101
0.195454
0.306953
0.553775
0.558846
0.662625
0.562367
0.35864
0.307729
0.309302
0.272467
0.255948
0.219441
0.188229
6.87736
1.36954
0.507443
0.282644
0.203189
0.17024
0.155803
0.149582
0.147064
0.146134
0.145835
0.145766
0.145773
0.145805
0.145846
0.145891
0.14594
0.145991
0.146045
0.146102
0.146162
0.146224
0.146288
0.146354
0.146422
0.146492
0.146563
0.146635
0.146708
0.146781
0.146854
0.146927
0.146998
0.147068
0.147136
0.147201
0.147264
0.147322
0.147377
0.147426
0.14747
0.147509
0.147541
0.147566
0.147584
0.147595
0.147598
0.147594
0.147582
0.147563
0.147536
0.147502
0.147461
0.147414
0.147362
0.147304
0.147243
0.147178
0.147109
0.147039
0.146968
0.146897
0.146826
0.146757
0.146688
0.146621
0.146557
0.146496
0.146437
0.146383
0.146334
0.146292
0.146259
0.146238
0.146233
0.146249
0.146291
0.146369
0.146488
0.146652
0.146868
0.147152
0.147518
0.14798
0.148552
0.149251
0.150095
0.151104
0.152299
0.153707
0.155359
0.157282
0.159508
0.161989
0.164312
0.167618
0.172602
0.196427
0.294152
0.488713
0.496321
0.630582
0.544959
0.318188
0.280259
0.278279
0.248818
0.235851
0.207104
0.182892
6.87664
1.3688
0.507157
0.282527
0.203143
0.17023
0.155814
0.149607
0.147088
0.146158
0.145861
0.145793
0.145802
0.145834
0.145875
0.145921
0.14597
0.146022
0.146077
0.146135
0.146195
0.146258
0.146323
0.146391
0.14646
0.146531
0.146604
0.146678
0.146753
0.146829
0.146904
0.146979
0.147054
0.147127
0.147199
0.147268
0.147335
0.147398
0.147457
0.147511
0.147561
0.147605
0.147642
0.147673
0.147698
0.147714
0.147724
0.147725
0.147719
0.147705
0.147683
0.147655
0.147619
0.147576
0.147527
0.147473
0.147414
0.147351
0.147284
0.147215
0.147144
0.147074
0.147004
0.146933
0.146862
0.146792
0.146725
0.146662
0.146604
0.14655
0.146503
0.146464
0.146436
0.146422
0.146426
0.146453
0.146512
0.146611
0.146754
0.146945
0.147195
0.147515
0.147924
0.148435
0.149065
0.149831
0.150753
0.15185
0.153148
0.154677
0.156468
0.158552
0.160962
0.163483
0.165935
0.169394
0.174585
0.198058
0.28362
0.435271
0.444368
0.602792
0.53087
0.286378
0.256929
0.250294
0.227722
0.216982
0.195105
0.176618
6.87577
1.36806
0.506875
0.282413
0.203101
0.170226
0.155841
0.14963
0.147107
0.146182
0.14589
0.145824
0.145834
0.145867
0.145909
0.145955
0.146004
0.146057
0.146112
0.146171
0.146232
0.146296
0.146363
0.146431
0.146502
0.146575
0.14665
0.146726
0.146804
0.146882
0.14696
0.147039
0.147117
0.147194
0.14727
0.147344
0.147415
0.147483
0.147548
0.147608
0.147664
0.147714
0.147758
0.147796
0.147828
0.147851
0.147868
0.147877
0.147878
0.147871
0.147856
0.147833
0.147803
0.147767
0.147723
0.147674
0.147618
0.147558
0.147494
0.147427
0.147358
0.14729
0.14722
0.14715
0.147079
0.147008
0.146938
0.146872
0.146814
0.146762
0.146719
0.146684
0.146662
0.146656
0.146671
0.146714
0.146791
0.146913
0.147083
0.147306
0.147593
0.147957
0.148413
0.14898
0.149675
0.150517
0.151525
0.152722
0.154137
0.155801
0.157752
0.160024
0.162615
0.165164
0.167804
0.171467
0.177034
0.200317
0.27549
0.394808
0.40461
0.577256
0.518273
0.263447
0.237515
0.227129
0.209665
0.200056
0.183427
0.168869
6.87474
1.36731
0.506596
0.282303
0.203064
0.17025
0.155869
0.149641
0.147122
0.146207
0.145921
0.145858
0.145869
0.145903
0.145945
0.145992
0.146042
0.146095
0.146151
0.146211
0.146273
0.146338
0.146406
0.146476
0.146549
0.146624
0.146701
0.14678
0.14686
0.146941
0.147023
0.147105
0.147187
0.147269
0.147349
0.147428
0.147505
0.147579
0.14765
0.147718
0.14778
0.147838
0.14789
0.147936
0.147976
0.148008
0.148033
0.148051
0.148061
0.148062
0.148056
0.148042
0.148019
0.14799
0.147953
0.14791
0.147861
0.147806
0.147746
0.147683
0.147618
0.147552
0.147484
0.147415
0.147345
0.147276
0.147207
0.147141
0.147081
0.147031
0.146992
0.146965
0.146951
0.146956
0.146985
0.147044
0.147143
0.14729
0.14749
0.147749
0.148078
0.14849
0.149002
0.149631
0.150398
0.151322
0.152426
0.153735
0.15528
0.157098
0.159231
0.161713
0.164383
0.167051
0.169932
0.173856
0.17995
0.203222
0.269899
0.36703
0.377532
0.551963
0.505393
0.247045
0.221625
0.20893
0.194723
0.185772
0.173139
0.162167
6.87356
1.36656
0.506321
0.282197
0.203041
0.170306
0.155885
0.149636
0.147134
0.146233
0.145955
0.145895
0.145907
0.145942
0.145985
0.146032
0.146083
0.146137
0.146194
0.146254
0.146318
0.146384
0.146454
0.146526
0.146601
0.146678
0.146757
0.146839
0.146922
0.147006
0.147092
0.147178
0.147265
0.147352
0.147438
0.147523
0.147606
0.147687
0.147765
0.14784
0.147912
0.147978
0.148039
0.148095
0.148144
0.148187
0.148223
0.148251
0.148271
0.148283
0.148287
0.148283
0.148271
0.148252
0.148224
0.14819
0.148149
0.148101
0.148048
0.147991
0.147932
0.14787
0.147806
0.14774
0.147673
0.147607
0.147543
0.147481
0.147423
0.147375
0.14734
0.147321
0.147319
0.147338
0.147384
0.147464
0.147587
0.147761
0.147994
0.148292
0.148667
0.149133
0.149706
0.150405
0.15125
0.152265
0.153474
0.154906
0.156596
0.158586
0.160923
0.163605
0.166315
0.16916
0.172334
0.176583
0.183349
0.20682
0.266859
0.350005
0.36178
0.52687
0.492239
0.235827
0.209258
0.195345
0.183046
0.174718
0.165189
0.157286
6.87223
1.36581
0.50605
0.282099
0.203094
0.170347
0.155867
0.149621
0.147145
0.146262
0.145991
0.145936
0.145949
0.145984
0.146028
0.146076
0.146127
0.146182
0.14624
0.146302
0.146367
0.146435
0.146506
0.14658
0.146657
0.146737
0.146819
0.146903
0.14699
0.147078
0.147168
0.147259
0.147351
0.147444
0.147536
0.147628
0.147718
0.147807
0.147894
0.147978
0.148059
0.148135
0.148207
0.148274
0.148335
0.14839
0.148438
0.148479
0.148512
0.148537
0.148555
0.148564
0.148565
0.148558
0.148543
0.14852
0.148489
0.148452
0.148409
0.148361
0.148311
0.148258
0.1482
0.14814
0.148079
0.148019
0.14796
0.147905
0.147855
0.147814
0.147784
0.147774
0.147786
0.147823
0.14789
0.147994
0.148144
0.14835
0.148618
0.148959
0.149384
0.149908
0.150548
0.151322
0.152252
0.153365
0.154688
0.156254
0.158102
0.160282
0.16284
0.16559
0.168434
0.171507
0.175024
0.179672
0.187257
0.211205
0.266534
0.342293
0.355844
0.502215
0.479966
0.229152
0.200599
0.185783
0.175136
0.167437
0.16004
0.154073
6.87074
1.36506
0.505784
0.282013
0.203211
0.17037
0.155818
0.149598
0.147156
0.146292
0.146031
0.145979
0.145994
0.14603
0.146074
0.146123
0.146175
0.146231
0.146291
0.146354
0.14642
0.146489
0.146562
0.146639
0.146718
0.146801
0.146886
0.146974
0.147064
0.147157
0.147252
0.147348
0.147446
0.147545
0.147644
0.147743
0.147842
0.14794
0.148037
0.148131
0.148223
0.148311
0.148396
0.148476
0.148551
0.14862
0.148683
0.148739
0.148788
0.14883
0.148863
0.148889
0.148906
0.148915
0.148916
0.148909
0.148894
0.148871
0.148842
0.148808
0.148771
0.148729
0.148683
0.148633
0.148582
0.148531
0.148481
0.148436
0.148398
0.148368
0.148351
0.148353
0.148379
0.148437
0.148529
0.148663
0.148845
0.149085
0.149393
0.149779
0.150257
0.150843
0.151553
0.152407
0.153429
0.154646
0.156091
0.1578
0.159821
0.162206
0.164926
0.167725
0.170755
0.174104
0.178017
0.183146
0.191701
0.216437
0.268809
0.341672
0.35652
0.48017
0.470207
0.225655
0.195233
0.179835
0.170348
0.163095
0.156895
0.152028
6.8691
1.3643
0.505523
0.281949
0.203359
0.170378
0.15575
0.149572
0.147168
0.146326
0.146074
0.146025
0.146042
0.146079
0.146124
0.146174
0.146227
0.146284
0.146345
0.146409
0.146477
0.146548
0.146624
0.146702
0.146784
0.14687
0.146959
0.147051
0.147145
0.147243
0.147343
0.147446
0.14755
0.147656
0.147763
0.147871
0.14798
0.148088
0.148195
0.148302
0.148406
0.148508
0.148607
0.148703
0.148794
0.14888
0.148961
0.149036
0.149104
0.149165
0.149219
0.149265
0.149303
0.149333
0.149355
0.149368
0.149373
0.14937
0.14936
0.149347
0.149328
0.149304
0.149274
0.14924
0.149205
0.149169
0.149134
0.149104
0.149082
0.149069
0.14907
0.14909
0.149135
0.149215
0.149334
0.149501
0.149721
0.150003
0.150355
0.15079
0.151323
0.151972
0.152755
0.153692
0.154809
0.156136
0.157708
0.159569
0.161772
0.164362
0.167094
0.170033
0.173291
0.176961
0.181326
0.18703
0.196692
0.222475
0.273247
0.346376
0.360971
0.462122
0.461089
0.222341
0.192879
0.17711
0.16796
0.160889
0.155378
0.151104
6.86731
1.36354
0.505272
0.282006
0.203465
0.170333
0.15567
0.149545
0.147182
0.146362
0.14612
0.146075
0.146093
0.146131
0.146177
0.146228
0.146282
0.14634
0.146402
0.146468
0.146538
0.146612
0.146689
0.146771
0.146856
0.146945
0.147037
0.147134
0.147233
0.147336
0.147443
0.147552
0.147663
0.147777
0.147894
0.148011
0.14813
0.14825
0.14837
0.14849
0.14861
0.148728
0.148844
0.148957
0.149068
0.149174
0.149276
0.149373
0.149465
0.14955
0.149629
0.149701
0.149765
0.149822
0.14987
0.14991
0.149942
0.149966
0.149983
0.149997
0.150004
0.150004
0.149999
0.14999
0.149977
0.149964
0.149952
0.149945
0.149945
0.149955
0.14998
0.150025
0.150096
0.150202
0.150352
0.150553
0.150814
0.151143
0.151546
0.152037
0.152628
0.153341
0.154196
0.155216
0.156429
0.157866
0.15957
0.161588
0.163971
0.166606
0.169411
0.172528
0.17605
0.180088
0.184962
0.19134
0.202212
0.229161
0.278913
0.353927
0.368841
0.45021
0.453885
0.219793
0.192986
0.176606
0.167697
0.160497
0.155262
0.151102
6.86536
1.36278
0.505036
0.282176
0.203523
0.170237
0.155582
0.149517
0.147199
0.146401
0.146168
0.146128
0.146148
0.146187
0.146234
0.146285
0.146341
0.1464
0.146464
0.146532
0.146604
0.14668
0.14676
0.146844
0.146933
0.147025
0.147122
0.147223
0.147328
0.147437
0.14755
0.147667
0.147787
0.14791
0.148036
0.148165
0.148296
0.148429
0.148564
0.148699
0.148836
0.148972
0.149108
0.149242
0.149375
0.149506
0.149633
0.149757
0.149877
0.149992
0.150101
0.150205
0.150302
0.150393
0.150476
0.150551
0.150618
0.150677
0.150732
0.150782
0.150825
0.150861
0.150891
0.150915
0.150937
0.150956
0.150977
0.151002
0.151034
0.151077
0.151134
0.151212
0.151316
0.151456
0.15164
0.151878
0.152181
0.152558
0.153016
0.153567
0.154222
0.155001
0.155928
0.157028
0.158332
0.159877
0.161709
0.163879
0.166344
0.16897
0.171896
0.175219
0.179038
0.183489
0.188935
0.196095
0.208279
0.236555
0.285965
0.363717
0.379611
0.447447
0.453764
0.220741
0.195233
0.177975
0.169327
0.161689
0.156262
0.151722
6.86326
1.36203
0.504818
0.282419
0.203549
0.170106
0.15549
0.149492
0.147219
0.146444
0.14622
0.146183
0.146205
0.146245
0.146293
0.146346
0.146403
0.146464
0.146529
0.146599
0.146673
0.146752
0.146835
0.146922
0.147015
0.147112
0.147213
0.14732
0.147431
0.147546
0.147667
0.147791
0.14792
0.148054
0.148191
0.148332
0.148477
0.148625
0.148776
0.14893
0.149085
0.149243
0.149401
0.149561
0.14972
0.149879
0.150037
0.150193
0.150347
0.150498
0.150645
0.150789
0.150927
0.151061
0.151188
0.151308
0.151422
0.151529
0.151634
0.151733
0.151825
0.15191
0.151989
0.152062
0.152131
0.152197
0.152264
0.152334
0.15241
0.152496
0.152597
0.152718
0.152864
0.153044
0.153268
0.153548
0.153894
0.154317
0.154829
0.15544
0.156162
0.15701
0.15801
0.159189
0.160574
0.162215
0.164161
0.166396
0.168808
0.171498
0.174565
0.178112
0.182257
0.187165
0.193251
0.201317
0.214968
0.244975
0.295818
0.378283
0.395722
0.451008
0.452826
0.224328
0.199046
0.180778
0.172394
0.164046
0.158089
0.152756
6.86102
1.36128
0.504616
0.282704
0.203555
0.169953
0.155396
0.14947
0.147242
0.146489
0.146275
0.146242
0.146265
0.146307
0.146356
0.14641
0.146468
0.146531
0.146599
0.14667
0.146747
0.146828
0.146915
0.147006
0.147102
0.147204
0.147311
0.147423
0.14754
0.147663
0.147792
0.147926
0.148065
0.14821
0.14836
0.148515
0.148675
0.14884
0.149009
0.149183
0.149361
0.149543
0.149728
0.149916
0.150107
0.150299
0.150493
0.150688
0.150883
0.151078
0.151272
0.151465
0.151655
0.151843
0.152026
0.152205
0.152379
0.152549
0.15272
0.152886
0.153045
0.153197
0.153343
0.153483
0.153619
0.153751
0.153882
0.154015
0.154152
0.154296
0.154453
0.154628
0.154826
0.155057
0.155329
0.155654
0.156044
0.156513
0.157073
0.157737
0.158519
0.159431
0.160499
0.161755
0.163219
0.16493
0.166869
0.169022
0.171446
0.174212
0.177425
0.181207
0.185704
0.19111
0.197908
0.207015
0.222328
0.254605
0.308724
0.39724
0.417154
0.463104
0.455248
0.230404
0.203961
0.184642
0.176464
0.167235
0.160521
0.154077
6.85863
1.36054
0.50443
0.283013
0.203547
0.169787
0.155302
0.149451
0.147269
0.146538
0.146333
0.146303
0.146328
0.146371
0.146422
0.146477
0.146537
0.146602
0.146671
0.146746
0.146825
0.146909
0.146999
0.147094
0.147195
0.147302
0.147414
0.147533
0.147658
0.147789
0.147926
0.14807
0.148221
0.148378
0.148542
0.148713
0.14889
0.149074
0.149265
0.149462
0.149666
0.149875
0.150091
0.150312
0.150539
0.150771
0.151008
0.151249
0.151494
0.151743
0.151994
0.152248
0.152503
0.152759
0.153014
0.153269
0.153522
0.153775
0.154033
0.154287
0.154536
0.15478
0.155019
0.155251
0.155479
0.155702
0.155922
0.15614
0.156359
0.156582
0.156814
0.157057
0.15732
0.15761
0.157936
0.158311
0.158747
0.159259
0.159859
0.160565
0.16139
0.162349
0.163465
0.164768
0.166243
0.167883
0.16974
0.171858
0.174296
0.177132
0.180486
0.184506
0.189373
0.195313
0.202895
0.213175
0.230374
0.265581
0.324841
0.420644
0.444402
0.483726
0.461315
0.238763
0.209661
0.189398
0.181189
0.170879
0.163297
0.155542
6.85609
1.3598
0.504259
0.283332
0.203531
0.169615
0.15521
0.149436
0.1473
0.146589
0.146393
0.146367
0.146394
0.146439
0.146491
0.146548
0.146609
0.146676
0.146748
0.146825
0.146907
0.146995
0.147088
0.147188
0.147293
0.147406
0.147524
0.14765
0.147783
0.147923
0.14807
0.148225
0.148388
0.14856
0.148739
0.148927
0.149124
0.14933
0.149544
0.149768
0.15
0.150242
0.150493
0.150753
0.151023
0.151302
0.151589
0.151886
0.152191
0.152505
0.152826
0.153155
0.153491
0.153833
0.15418
0.154531
0.154886
0.155249
0.155621
0.155992
0.156363
0.156731
0.157096
0.157455
0.15781
0.158158
0.158499
0.158835
0.159166
0.159495
0.159822
0.160154
0.160496
0.160855
0.161241
0.161667
0.162144
0.162688
0.163309
0.164023
0.164846
0.165786
0.166856
0.168086
0.1695
0.171087
0.17288
0.174957
0.177391
0.180276
0.183755
0.188004
0.193249
0.199754
0.208193
0.21977
0.239029
0.277689
0.343797
0.447277
0.476818
0.515824
0.471017
0.248439
0.216216
0.195058
0.186333
0.174645
0.166026
0.156937
6.85341
1.35907
0.504152
0.283619
0.203491
0.169441
0.155122
0.149426
0.147334
0.146644
0.146457
0.146434
0.146463
0.146509
0.146562
0.146621
0.146685
0.146753
0.146828
0.146907
0.146993
0.147084
0.147182
0.147286
0.147397
0.147515
0.147641
0.147774
0.147915
0.148065
0.148224
0.148391
0.148568
0.148755
0.148951
0.149159
0.149377
0.149607
0.149848
0.150102
0.150368
0.150646
0.150938
0.151244
0.151563
0.151896
0.152244
0.152607
0.152985
0.153377
0.153784
0.154207
0.154643
0.155093
0.155557
0.156031
0.156518
0.157025
0.157546
0.158074
0.158607
0.159143
0.159679
0.160212
0.16074
0.161258
0.161764
0.162258
0.162736
0.163195
0.163636
0.164061
0.164479
0.164895
0.165321
0.165768
0.166248
0.166777
0.167368
0.168037
0.168799
0.169666
0.170653
0.171781
0.173099
0.174623
0.176354
0.178367
0.180767
0.183669
0.187241
0.191698
0.197325
0.204414
0.213753
0.22669
0.248088
0.290483
0.364722
0.474483
0.512612
0.559619
0.484183
0.259475
0.223548
0.201631
0.191753
0.178496
0.168656
0.158242
6.85058
1.35835
0.504192
0.283815
0.203395
0.169267
0.155039
0.14942
0.147371
0.146701
0.146522
0.146503
0.146534
0.146582
0.146636
0.146697
0.146763
0.146834
0.146911
0.146994
0.147083
0.147178
0.14728
0.147389
0.147506
0.147631
0.147764
0.147905
0.148056
0.148216
0.148387
0.148568
0.14876
0.148963
0.149179
0.149408
0.149651
0.149907
0.150179
0.150466
0.15077
0.151091
0.15143
0.151787
0.152165
0.152563
0.152982
0.153423
0.153888
0.154376
0.154888
0.155426
0.155987
0.156574
0.157184
0.157817
0.158474
0.159168
0.159885
0.160621
0.161372
0.162131
0.162895
0.163656
0.164399
0.165115
0.165802
0.166459
0.167081
0.167669
0.168221
0.168741
0.169233
0.169704
0.170161
0.170616
0.171083
0.171575
0.172109
0.172701
0.173369
0.174127
0.174995
0.175995
0.177162
0.178566
0.180219
0.182138
0.184469
0.187343
0.190971
0.195597
0.201568
0.209219
0.21948
0.233846
0.25754
0.304052
0.387474
0.504071
0.55014
0.615603
0.502344
0.272497
0.231696
0.208996
0.19716
0.18238
0.171131
0.159415
6.84761
1.35765
0.504346
0.283939
0.203257
0.169095
0.154961
0.149419
0.147412
0.146761
0.14659
0.146575
0.146608
0.146657
0.146713
0.146776
0.146844
0.146918
0.146997
0.147083
0.147176
0.147276
0.147383
0.147497
0.14762
0.147752
0.147893
0.148044
0.148204
0.148376
0.14856
0.148755
0.148964
0.149186
0.149423
0.149676
0.149945
0.150232
0.150538
0.150863
0.15121
0.151579
0.151972
0.15239
0.152835
0.153308
0.153812
0.154347
0.154916
0.15552
0.15616
0.156839
0.157556
0.158313
0.159109
0.159945
0.160824
0.161758
0.162729
0.163733
0.164746
0.165756
0.166757
0.167742
0.168707
0.169642
0.170541
0.171399
0.172209
0.172966
0.173667
0.17431
0.174898
0.175435
0.175928
0.176388
0.176827
0.177262
0.177711
0.17819
0.178723
0.179329
0.18003
0.180856
0.181834
0.18303
0.184535
0.186343
0.188552
0.191352
0.194961
0.199676
0.205933
0.214108
0.225288
0.241118
0.267218
0.318074
0.411625
0.537654
0.583872
0.685921
0.526155
0.287785
0.24068
0.217246
0.202522
0.186267
0.173397
0.160422
6.8445
1.35696
0.504579
0.284009
0.203086
0.168926
0.15489
0.149422
0.147455
0.146824
0.14666
0.146648
0.146683
0.146734
0.146792
0.146857
0.146927
0.147004
0.147087
0.147176
0.147273
0.147377
0.147489
0.14761
0.14774
0.147879
0.148028
0.148189
0.14836
0.148545
0.148742
0.148954
0.149181
0.149424
0.149684
0.149963
0.150262
0.150582
0.150926
0.151294
0.151689
0.152113
0.152568
0.153055
0.153579
0.154141
0.154743
0.15539
0.156084
0.156828
0.157625
0.158477
0.159388
0.160358
0.161389
0.162479
0.163638
0.164846
0.166079
0.167335
0.168606
0.169883
0.171161
0.172429
0.173678
0.174898
0.176075
0.177199
0.178258
0.179242
0.180141
0.180951
0.181669
0.182296
0.182837
0.183303
0.183705
0.184062
0.184394
0.184722
0.185071
0.185469
0.185942
0.186524
0.187257
0.188176
0.189425
0.19107
0.193093
0.19573
0.199234
0.203939
0.210397
0.218994
0.23099
0.248165
0.276479
0.331441
0.436966
0.578157
0.611011
0.77291
0.556208
0.305696
0.250484
0.226225
0.207732
0.190067
0.175366
0.161213
6.84125
1.35629
0.504867
0.284036
0.202894
0.168761
0.154824
0.14943
0.147502
0.146888
0.146732
0.146723
0.14676
0.146813
0.146873
0.14694
0.147013
0.147093
0.147179
0.147272
0.147373
0.147482
0.1476
0.147727
0.147863
0.148011
0.148169
0.14834
0.148524
0.148722
0.148934
0.149163
0.14941
0.149675
0.149961
0.150269
0.150601
0.150959
0.151345
0.151761
0.152211
0.152697
0.153222
0.15379
0.154404
0.155069
0.155788
0.156567
0.15741
0.158323
0.15931
0.160376
0.161525
0.162757
0.164061
0.165407
0.166818
0.168284
0.169793
0.171346
0.172932
0.174542
0.176166
0.177792
0.179406
0.180993
0.182532
0.184006
0.185396
0.186684
0.187853
0.188892
0.189791
0.190547
0.191162
0.191643
0.192003
0.192262
0.192443
0.192571
0.192677
0.192795
0.19296
0.193212
0.193606
0.194215
0.195076
0.196388
0.198198
0.20053
0.203844
0.2084
0.214838
0.223618
0.236202
0.254466
0.284917
0.343855
0.463235
0.62823
0.654515
0.880146
0.59126
0.326746
0.26146
0.236019
0.212898
0.193787
0.17706
0.161832
6.83787
1.35564
0.505192
0.284033
0.202686
0.168601
0.154765
0.149442
0.147551
0.146954
0.146805
0.1468
0.146839
0.146894
0.146956
0.147025
0.147101
0.147184
0.147273
0.147371
0.147476
0.14759
0.147714
0.147847
0.147992
0.148148
0.148316
0.148498
0.148694
0.148907
0.149136
0.149383
0.149651
0.149941
0.150255
0.150594
0.150962
0.151361
0.151794
0.152265
0.152776
0.153332
0.153937
0.154597
0.155316
0.156101
0.156957
0.157893
0.158915
0.16003
0.161248
0.162571
0.163982
0.165453
0.166986
0.168582
0.17028
0.172052
0.173893
0.175807
0.17778
0.179802
0.18186
0.183938
0.186018
0.188077
0.190088
0.192023
0.193853
0.195547
0.197081
0.198431
0.19958
0.200519
0.201244
0.201759
0.202078
0.20222
0.202211
0.202082
0.201872
0.201621
0.201376
0.201204
0.201167
0.20132
0.201723
0.202505
0.203918
0.205917
0.208858
0.213021
0.219189
0.2279
0.240826
0.259898
0.292374
0.35522
0.490432
0.690064
0.718813
1.01216
0.628091
0.350782
0.273532
0.246002
0.217979
0.197401
0.178532
0.162385
6.83434
1.35501
0.505539
0.284005
0.202469
0.168448
0.154711
0.149457
0.147603
0.147022
0.14688
0.146878
0.146919
0.146976
0.14704
0.147112
0.147191
0.147276
0.14737
0.147471
0.147582
0.147701
0.147831
0.147972
0.148124
0.148289
0.148468
0.148662
0.148872
0.149099
0.149346
0.149614
0.149905
0.150221
0.150565
0.150939
0.151346
0.151791
0.152276
0.152806
0.153386
0.154022
0.154718
0.155483
0.156323
0.157246
0.158263
0.159383
0.160617
0.161974
0.163442
0.164989
0.166617
0.168329
0.170125
0.172014
0.174049
0.176187
0.178427
0.180777
0.183227
0.185761
0.188366
0.19102
0.193699
0.19637
0.198997
0.201538
0.203949
0.206186
0.208206
0.209974
0.211461
0.212649
0.213528
0.214098
0.214374
0.214375
0.214131
0.213681
0.213068
0.21234
0.211591
0.210881
0.210253
0.209785
0.209578
0.209687
0.210487
0.212007
0.214355
0.217888
0.223507
0.231851
0.244834
0.264357
0.299008
0.366048
0.519246
0.765012
0.792494
1.16572
0.668438
0.379508
0.288294
0.256774
0.223349
0.200953
0.179838
0.163109
6.83068
1.3544
0.505898
0.28396
0.202247
0.168301
0.154664
0.149477
0.147657
0.147091
0.146955
0.146956
0.147
0.147059
0.147126
0.1472
0.147282
0.147371
0.147468
0.147574
0.147689
0.147815
0.147951
0.148099
0.14826
0.148434
0.148624
0.148831
0.149055
0.149299
0.149564
0.149854
0.150169
0.150514
0.15089
0.151302
0.151753
0.152247
0.15279
0.153386
0.154043
0.154767
0.155567
0.156451
0.157429
0.158514
0.159717
0.161053
0.162526
0.164097
0.165765
0.167535
0.16941
0.171396
0.173497
0.175739
0.178166
0.180739
0.183462
0.186343
0.189383
0.19256
0.195856
0.199248
0.202703
0.206177
0.209617
0.212963
0.216149
0.219108
0.221777
0.2241
0.226032
0.227543
0.22862
0.229259
0.229475
0.229294
0.228753
0.227896
0.226773
0.225493
0.224117
0.222686
0.221284
0.220006
0.218969
0.218291
0.218167