/*--------------------------------*- C++ -*----------------------------------*\
| =========                 |                                                 |
| \\      /  F ield         | OpenFOAM: The Open Source CFD Toolbox           |
|  \\    /   O peration     | Version:  v2106                                 |
|   \\  /    A nd           | Website:  www.openfoam.com                      |
|    \\/     M anipulation  |                                                 |
\*---------------------------------------------------------------------------*/
FoamFile
{
    version     2.0;
    format      ascii;
    arch        "LSB;label=32;scalar=64";
    class       volScalarField;
    location    "1";
    object      p;
}
// * * * * * * * * * * * * * * * * * * * * * * * * * * * * * * * * * * * * * //

dimensions      [1 -1 -2 0 0 0 0];

internalField   nonuniform List<scalar> 
29678
(
14642.2
14495
14347.9
14200.7
14053.6
13906.4
13759.3
13612.1
13465
13317.8
13170.7
13023.5
12876.4
12729.3
12582.1
12435
12287.8
12140.7
11993.5
11846.4
11699.2
11552.1
11404.9
11257.8
11110.7
10963.5
10816.4
10669.2
10522.1
10374.9
10227.8
10080.6
9933.48
9786.33
9639.17
9492.02
9344.87
9197.71
9050.55
8903.39
8756.23
8609.07
8461.9
8314.74
8167.57
8020.4
7873.23
7726.05
7578.87
7431.69
7284.5
7137.32
6990.13
6842.94
6695.74
6548.55
6401.35
6254.15
6106.95
5959.75
5812.55
5665.35
5518.15
5370.94
5223.74
5076.53
4929.32
4782.11
4634.91
4487.7
4340.49
4193.29
4046.09
3898.88
3751.68
3604.48
3457.29
3310.09
3162.9
3015.71
2868.51
2721.32
2574.13
2426.94
2279.76
2132.58
1985.4
1838.22
1691.05
1543.88
1396.72
1249.55
1102.4
955.238
808.076
660.91
513.72
366.413
219.321
72.2515
-0.12638
-0.290858
-0.495449
-0.66839
-0.859276
-1.03784
-1.22138
-1.40069
-1.58143
-1.76259
14643.6
14496.5
14349.3
14202.2
14055
13907.9
13760.8
13613.6
13466.5
13319.3
13172.2
13025.1
12877.9
12730.8
12583.6
12436.5
12289.4
12142.2
11995.1
11848
11700.8
11553.7
11406.6
11259.4
11112.3
10965.2
10818
10670.9
10523.8
10376.6
10229.5
10082.3
9935.18
9788.02
9640.87
9493.71
9346.55
9199.38
9052.21
8905.03
8757.85
8610.66
8463.47
8316.27
8169.06
8021.85
7874.63
7727.41
7580.18
7432.93
7285.69
7138.43
6991.17
6843.9
6696.62
6549.34
6402.05
6254.76
6107.46
5960.15
5812.85
5665.54
5518.22
5370.9
5223.58
5076.26
4928.93
4781.61
4634.28
4486.96
4339.64
4192.32
4045.01
3897.69
3750.38
3603.08
3455.78
3308.48
3161.19
3013.91
2866.63
2719.35
2572.08
2424.82
2277.58
2130.33
1983.1
1835.87
1688.65
1541.44
1394.24
1247.06
1099.88
952.717
805.555
658.404
511.219
364.01
216.867
71.1441
-0.140252
-0.294596
-0.499378
-0.66898
-0.855816
-1.0348
-1.21728
-1.39747
-1.57878
-1.76052
14645.1
14497.9
14350.8
14203.7
14056.5
13909.4
13762.2
13615.1
13468
13320.8
13173.7
13026.6
12879.4
12732.3
12585.2
12438.1
12290.9
12143.8
11996.7
11849.6
11702.5
11555.3
11408.2
11261.1
11114
10966.8
10819.7
10672.6
10525.4
10378.3
10231.2
10084
9936.88
9789.72
9642.57
9495.4
9348.23
9201.05
9053.86
8906.67
8759.47
8612.25
8465.03
8317.8
8170.56
8023.31
7876.04
7728.77
7581.48
7434.18
7286.87
7139.54
6992.21
6844.86
6697.5
6550.13
6402.75
6255.36
6107.96
5960.55
5813.14
5665.71
5518.29
5370.85
5223.42
5075.98
4928.54
4781.1
4633.66
4486.22
4338.78
4191.35
4043.93
3896.5
3749.09
3601.68
3454.27
3306.87
3159.49
3012.11
2864.74
2717.38
2570.04
2422.71
2275.39
2128.08
1980.78
1833.5
1686.23
1538.98
1391.75
1244.54
1097.35
950.177
803.018
655.888
508.716
361.615
214.361
70.1139
-0.1202
-0.289254
-0.481011
-0.662596
-0.846963
-1.02957
-1.21282
-1.39478
-1.57703
-1.75933
14646.6
14499.4
14352.3
14205.1
14058
13910.8
13763.7
13616.6
13469.4
13322.3
13175.2
13028.1
12881
12733.8
12586.7
12439.6
12292.5
12145.4
11998.3
11851.2
11704.1
11557
11409.8
11262.7
11115.6
10968.5
10821.4
10674.3
10527.1
10380
10232.9
10085.7
9938.58
9791.43
9644.27
9497.1
9349.92
9202.73
9055.53
8908.32
8761.1
8613.86
8466.61
8319.35
8172.07
8024.77
7877.46
7730.13
7582.79
7435.43
7288.06
7140.67
6993.26
6845.83
6698.39
6550.93
6403.45
6255.97
6108.47
5960.95
5813.43
5665.9
5518.36
5370.81
5223.25
5075.7
4928.14
4780.58
4633.03
4485.47
4337.92
4190.38
4042.84
3895.31
3747.78
3600.26
3452.76
3305.26
3157.77
3010.3
2862.84
2715.4
2567.98
2420.58
2273.19
2125.81
1978.45
1831.11
1683.8
1536.5
1389.23
1241.99
1094.78
947.603
800.449
653.344
506.197
359.215
211.942
69.1277
-0.107069
-0.289439
-0.476091
-0.65973
-0.843833
-1.0265
-1.20995
-1.39241
-1.57505
-1.75766
14648
14500.9
14353.7
14206.6
14059.4
13912.3
13765.2
13618.1
13470.9
13323.8
13176.7
13029.6
12882.5
12735.4
12588.3
12441.2
12294.1
12147
11999.9
11852.8
11705.7
11558.6
11411.5
11264.4
11117.3
10970.2
10823.1
10675.9
10528.8
10381.7
10234.6
10087.4
9940.3
9793.14
9645.98
9498.81
9351.62
9204.42
9057.21
8909.98
8762.74
8615.48
8468.2
8320.9
8173.59
8026.25
7878.9
7731.52
7584.12
7436.7
7289.27
7141.8
6994.32
6846.82
6699.29
6551.74
6404.17
6256.59
6108.99
5961.37
5813.74
5666.09
5518.43
5370.77
5223.1
5075.42
4927.75
4780.07
4632.39
4484.72
4337.05
4189.39
4041.74
3894.1
3746.46
3598.84
3451.23
3303.63
3156.04
3008.48
2860.93
2713.41
2565.9
2418.42
2270.96
2123.52
1976.09
1828.7
1681.33
1533.98
1386.68
1239.4
1092.17
944.978
797.828
650.749
503.634
356.783
209.511
68.1526
-0.0995969
-0.288433
-0.471854
-0.656393
-0.841072
-1.02391
-1.20772
-1.39056
-1.57351
-1.75635
14649.5
14502.3
14355.2
14208
14060.9
13913.8
13766.6
13619.5
13472.4
13325.3
13178.2
13031.1
12884
12736.9
12589.8
12442.7
12295.6
12148.5
12001.5
11854.4
11707.3
11560.2
11413.1
11266
11118.9
10971.8
10824.7
10677.6
10530.5
10383.4
10236.3
10089.2
9942.02
9794.86
9647.7
9500.52
9353.33
9206.12
9058.9
8911.65
8764.39
8617.11
8469.81
8322.48
8175.13
8027.75
7880.35
7732.93
7585.48
7438
7290.5
7142.97
6995.41
6847.82
6700.21
6552.57
6404.91
6257.23
6109.52
5961.8
5814.05
5666.29
5518.52
5370.74
5222.95
5075.15
4927.35
4779.55
4631.76
4483.96
4336.18
4188.4
4040.63
3892.87
3745.13
3597.4
3449.68
3301.98
3154.3
3006.64
2859
2711.39
2563.81
2416.25
2268.71
2121.19
1973.7
1826.24
1678.82
1531.42
1384.07
1236.76
1089.5
942.286
795.135
648.072
500.99
354.262
206.99
67.1284
-0.0970465
-0.287992
-0.47016
-0.654285
-0.839345
-1.02201
-1.206
-1.38904
-1.57218
-1.75518
14650.9
14503.8
14356.6
14209.5
14062.4
13915.2
13768.1
13621
13473.9
13326.8
13179.7
13032.6
12885.5
12738.4
12591.4
12444.3
12297.2
12150.1
12003
11856
11708.9
11561.8
11414.8
11267.7
11120.6
10973.5
10826.4
10679.3
10532.2
10385.1
10238
10090.9
9943.75
9796.6
9649.43
9502.25
9355.06
9207.84
9060.61
8913.35
8766.07
8618.77
8471.44
8324.08
8176.7
8029.28
7881.84
7734.36
7586.86
7439.32
7291.76
7144.16
6996.52
6848.86
6701.16
6553.44
6405.68
6257.89
6110.08
5962.25
5814.39
5666.51
5518.62
5370.72
5222.8
5074.88
4926.96
4779.04
4631.12
4483.2
4335.29
4187.39
4039.51
3891.64
3743.78
3595.94
3448.12
3300.32
3152.54
3004.78
2857.05
2709.36
2561.68
2414.04
2266.43
2118.84
1971.28
1823.75
1676.26
1528.81
1381.4
1234.05
1086.75
939.51
792.347
645.286
498.228
351.597
204.321
66.0109
-0.0970076
-0.287352
-0.469395
-0.652771
-0.838095
-1.02058
-1.20465
-1.38785
-1.57112
-1.75426
14652.4
14505.2
14358.1
14210.9
14063.8
13916.7
13769.6
13622.5
13475.4
13328.3
13181.2
13034.1
12887
12740
12592.9
12445.8
12298.8
12151.7
12004.6
11857.6
11710.5
11563.5
11416.4
11269.3
11122.3
10975.2
10828.1
10681
10533.9
10386.8
10239.7
10092.6
9945.49
9798.34
9651.18
9504
9356.8
9209.58
9062.33
8915.06
8767.77
8620.45
8473.09
8325.71
8178.29
8030.84
7883.35
7735.83
7588.27
7440.68
7293.05
7145.38
6997.67
6849.93
6702.14
6554.32
6406.47
6258.58
6110.66
5962.71
5814.74
5666.75
5518.73
5370.71
5222.67
5074.62
4926.57
4778.52
4630.47
4482.43
4334.4
4186.38
4038.37
3890.38
3742.41
3594.46
3446.53
3298.63
3150.75
3002.9
2855.08
2707.29
2559.53
2411.81
2264.11
2116.45
1968.81
1821.22
1673.66
1526.14
1378.68
1231.26
1083.91
936.634
789.443
642.362
495.313
348.738
201.447
64.7496
-0.0982326
-0.286592
-0.469233
-0.651777
-0.83712
-1.01949
-1.20355
-1.38686
-1.57024
-1.75351
14653.8
14506.7
14359.5
14212.4
14065.3
13918.1
13771
13623.9
13476.8
13329.8
13182.7
13035.6
12888.5
12741.5
12594.4
12447.4
12300.3
12153.3
12006.2
11859.2
11712.1
11565.1
11418
11271
11123.9
10976.9
10829.8
10682.7
10535.7
10388.6
10241.5
10094.4
9947.24
9800.1
9652.94
9505.76
9358.56
9211.34
9064.09
8916.81
8769.5
8622.15
8474.78
8327.37
8179.92
8032.43
7884.9
7737.34
7589.73
7442.07
7294.38
7146.64
6998.85
6851.03
6703.16
6555.24
6407.29
6259.3
6111.27
5963.21
5815.12
5667
5518.86
5370.71
5222.54
5074.36
4926.18
4778
4629.82
4481.65
4333.49
4185.34
4037.21
3889.11
3741.02
3592.96
3444.92
3296.91
3148.94
3000.99
2853.08
2705.2
2557.35
2409.54
2261.76
2114.01
1966.3
1818.63
1671
1523.41
1375.87
1228.39
1080.98
933.644
786.404
639.279
492.212
345.644
198.318
63.3038
-0.0999914
-0.285947
-0.468994
-0.651033
-0.836204
-1.01859
-1.2026
-1.38602
-1.56951
-1.75292
14655.2
14508.1
14361
14213.8
14066.7
13919.6
13772.5
13625.4
13478.3
13331.2
13184.2
13037.1
12890
12743
12595.9
12448.9
12301.9
12154.8
12007.8
11860.8
11713.7
11566.7
11419.7
11272.6
11125.6
10978.6
10831.5
10684.5
10537.4
10390.3
10243.2
10096.1
9949.01
9801.88
9654.73
9507.55
9360.35
9213.12
9065.86
8918.58
8771.25
8623.9
8476.5
8329.06
8181.59
8034.06
7886.5
7738.88
7591.22
7443.51
7295.75
7147.94
7000.08
6852.17
6704.21
6556.2
6408.15
6260.05
6111.9
5963.73
5815.51
5667.27
5519
5370.72
5222.42
5074.1
4925.79
4777.47
4629.16
4480.85
4332.56
4184.29
4036.04
3887.81
3739.6
3591.43
3443.28
3295.17
3147.09
2999.05
2851.04
2703.07
2555.13
2407.23
2259.37
2111.54
1963.75
1816
1668.28
1520.62
1373
1225.44
1077.95
930.532
783.217
636.019
488.9
342.283
194.892
61.6473
-0.101798
-0.285366
-0.468424
-0.650313
-0.835219
-1.01774
-1.2017
-1.38526
-1.56887
-1.75244
14656.7
14509.5
14362.4
14215.2
14068.1
13921
13773.9
13626.8
13479.8
13332.7
13185.6
13038.6
12891.5
12744.5
12597.5
12450.4
12303.4
12156.4
12009.4
11862.4
11715.3
11568.3
11421.3
11274.3
11127.3
10980.2
10833.2
10686.2
10539.1
10392.1
10245
10097.9
9950.8
9803.68
9656.53
9509.36
9362.16
9214.93
9067.67
8920.38
8773.05
8625.67
8478.26
8330.8
8183.3
8035.74
7888.14
7740.48
7592.76
7445
7297.17
7149.29
7001.35
6853.36
6705.31
6557.2
6409.04
6260.83
6112.58
5964.28
5815.94
5667.57
5519.17
5370.74
5222.3
5073.85
4925.39
4776.94
4628.49
4480.05
4331.62
4183.22
4034.83
3886.48
3738.16
3589.87
3441.61
3293.39
3145.21
2997.07
2848.97
2700.9
2552.88
2404.89
2256.94
2109.03
1961.15
1813.31
1665.51
1517.76
1370.05
1222.39
1074.8
927.291
779.875
632.57
485.36
338.635
191.141
59.7676
-0.102908
-0.284426
-0.46756
-0.649446
-0.834095
-1.01684
-1.20081
-1.38451
-1.56828
-1.75204
14658.1
14510.9
14363.8
14216.7
14069.5
13922.4
13775.3
13628.3
13481.2
13334.1
13187.1
13040.1
12893
12746
12599
12452
12304.9
12157.9
12010.9
11863.9
11716.9
11569.9
11422.9
11275.9
11128.9
10981.9
10834.9
10687.9
10540.9
10393.8
10246.8
10099.7
9952.61
9805.49
9658.36
9511.19
9364
9216.77
9069.51
8922.22
8774.88
8627.49
8480.07
8332.59
8185.06
8037.47
7889.83
7742.12
7594.36
7446.54
7298.65
7150.7
7002.68
6854.6
6706.46
6558.25
6409.99
6261.66
6113.29
5964.86
5816.4
5667.89
5519.35
5370.78
5222.2
5073.6
4925
4776.4
4627.8
4479.22
4330.66
4182.12
4033.6
3885.12
3736.68
3588.27
3439.9
3291.57
3143.29
2995.05
2846.85
2698.69
2550.58
2402.5
2254.46
2106.46
1958.5
1810.57
1662.68
1514.83
1367.02
1219.26
1071.56
923.921
776.375
628.93
481.585
334.691
187.048
57.658
-0.102491
-0.282903
-0.466251
-0.648258
-0.832779
-1.01579
-1.19985
-1.38374
-1.56771
-1.75169
14659.5
14512.3
14365.2
14218.1
14070.9
13923.8
13776.8
13629.7
13482.6
13335.6
13188.6
13041.5
12894.5
12747.5
12600.5
12453.5
12306.5
12159.5
12012.5
11865.5
11718.5
11571.6
11424.6
11277.6
11130.6
10983.6
10836.6
10689.6
10542.6
10395.6
10248.6
10101.5
9954.43
9807.33
9660.21
9513.05
9365.87
9218.65
9071.39
8924.09
8776.75
8629.36
8481.92
8334.42
8186.87
8039.25
7891.58
7743.83
7596.02
7448.14
7300.19
7152.17
7004.07
6855.91
6707.67
6559.36
6410.98
6262.54
6114.04
5965.49
5816.89
5668.24
5519.56
5370.84
5222.11
5073.36
4924.6
4775.85
4627.1
4478.37
4329.67
4180.99
4032.34
3883.73
3735.15
3586.63
3438.14
3289.71
3141.32
2992.98
2844.69
2696.44
2548.23
2400.07
2251.94
2103.86
1955.8
1807.78
1659.79
1511.84
1363.92
1216.04
1068.21
920.429
772.724
625.102
477.576
330.452
182.606
55.3142
-0.100439
-0.280704
-0.4644
-0.64667
-0.831246
-1.01455
-1.19881
-1.38292
-1.56714
-1.75138
14660.9
14513.7
14366.6
14219.5
14072.3
13925.2
13778.2
13631.1
13484.1
13337
13190
13043
12896
12749
12602
12455
12308
12161
12014.1
11867.1
11720.1
11573.2
11426.2
11279.3
11132.3
10985.3
10838.4
10691.4
10544.4
10397.4
10250.4
10103.3
9956.28
9809.2
9662.09
9514.95
9367.77
9220.56
9073.31
8926.02
8778.67
8631.28
8483.82
8336.31
8188.74
8041.1
7893.39
7745.61
7597.75
7449.81
7301.8
7153.71
7005.53
6857.28
6708.94
6560.53
6412.04
6263.48
6114.85
5966.16
5817.42
5668.62
5519.79
5370.92
5222.03
5073.12
4924.2
4775.29
4626.39
4477.5
4328.65
4179.82
4031.03
3882.29
3733.59
3584.94
3436.34
3287.79
3139.3
2990.86
2842.47
2694.13
2545.84
2397.59
2249.38
2101.2
1953.06
1804.94
1656.86
1508.79
1360.76
1212.75
1064.77
916.824
768.933
621.1
473.345
325.931
177.822
52.7421
-0.0973112
-0.277878
-0.462041
-0.644722
-0.829486
-1.01311
-1.19766
-1.38206
-1.56656
-1.75109
14662.2
14515.1
14368
14220.8
14073.7
13926.6
13779.6
13632.5
13485.5
13338.5
13191.4
13044.4
12897.4
12750.4
12603.5
12456.5
12309.5
12162.6
12015.6
11868.7
11721.7
11574.8
11427.9
11280.9
11134
10987.1
10840.1
10693.1
10546.2
10399.2
10252.2
10105.2
9958.15
9811.08
9663.99
9516.87
9369.71
9222.51
9075.27
8927.98
8780.64
8633.24
8485.79
8338.26
8190.67
8043.01
7895.27
7747.45
7599.55
7451.57
7303.49
7155.33
7007.07
6858.73
6710.29
6561.77
6413.17
6264.48
6115.72
5966.89
5817.99
5669.04
5520.05
5371.01
5221.96
5072.88
4923.8
4774.72
4625.65
4476.61
4327.59
4178.61
4029.68
3880.8
3731.96
3583.19
3434.48
3285.82
3137.22
2988.69
2840.2
2691.78
2543.4
2395.06
2246.77
2098.5
1950.27
1802.06
1653.87
1505.7
1357.54
1209.39
1061.25
913.125
765.023
616.945
468.919
321.156
172.718
49.9602
-0.0936097
-0.274553
-0.45922
-0.642484
-0.827532
-1.01152
-1.19641
-1.38116
-1.56597
-1.75082
14663.6
14516.5
14369.3
14222.2
14075.1
13928
13781
13633.9
13486.9
13339.9
13192.9
13045.9
12898.9
12751.9
12604.9
12458
12311
12164.1
12017.2
11870.3
11723.3
11576.4
11429.5
11282.6
11135.7
10988.8
10841.8
10694.9
10548
10401
10254
10107.1
9960.04
9813
9665.93
9518.83
9371.69
9224.51
9077.28
8930
8782.67
8635.27
8487.81
8340.28
8192.68
8045
7897.23
7749.38
7601.44
7453.4
7305.27
7157.03
7008.7
6860.26
6711.73
6563.1
6414.37
6265.55
6116.65
5967.67
5818.62
5669.5
5520.34
5371.13
5221.9
5072.64
4923.38
4774.13
4624.89
4475.67
4326.49
4177.36
4028.27
3879.25
3730.28
3581.38
3432.55
3283.78
3135.08
2986.45
2837.87
2689.36
2540.9
2392.48
2244.11
2095.76
1947.44
1799.14
1650.85
1502.57
1354.28
1205.98
1057.68
909.356
761.022
612.672
464.333
316.169
167.332
46.996
-0.0895697
-0.270833
-0.456017
-0.639973
-0.825365
-1.00981
-1.19507
-1.38019
-1.56535
-1.75054
14665
14517.8
14370.7
14223.6
14076.5
13929.4
13782.3
13635.3
13488.3
13341.3
13194.3
13047.3
12900.3
12753.4
12606.4
12459.5
12312.6
12165.6
12018.7
11871.8
11724.9
11578
11431.2
11284.3
11137.4
10990.5
10843.6
10696.7
10549.8
10402.8
10255.9
10108.9
9961.95
9814.94
9667.9
9520.82
9373.7
9226.54
9079.33
8932.07
8784.75
8637.36
8489.91
8342.37
8194.76
8047.07
7899.28
7751.4
7603.42
7455.33
7307.14
7158.83
7010.42
6861.89
6713.26
6564.51
6415.66
6266.7
6117.65
5968.51
5819.3
5670.01
5520.67
5371.28
5221.85
5072.41
4922.96
4773.52
4624.09
4474.7
4325.35
4176.05
4026.8
3877.63
3728.53
3579.5
3430.54
3281.67
3132.87
2984.14
2835.48
2686.88
2538.34
2389.85
2241.4
2092.98
1944.58
1796.19
1647.8
1499.41
1351
1202.56
1054.08
905.55
756.969
608.324
459.639
311.029
161.715
43.8879
-0.0849301
-0.266671
-0.452529
-0.637225
-0.823013
-1.00799
-1.19366
-1.37916
-1.5647
-1.75024
14666.3
14519.1
14372
14224.9
14077.8
13930.7
13783.7
13636.7
13489.6
13342.6
13195.7
13048.7
12901.7
12754.8
12607.9
12461
12314
12167.2
12020.3
11873.4
11726.5
11579.7
11432.8
11285.9
11139.1
10992.2
10845.3
10698.5
10551.6
10404.7
10257.8
10110.8
9963.89
9816.91
9669.9
9522.85
9375.76
9228.62
9081.44
8934.2
8786.89
8639.52
8492.07
8344.54
8196.93
8049.22
7901.42
7753.51
7605.49
7457.36
7309.11
7160.74
7012.25
6863.63
6714.89
6566.02
6417.04
6267.94
6118.74
5969.44
5820.04
5670.57
5521.04
5371.45
5221.82
5072.18
4922.52
4772.88
4623.26
4473.68
4324.14
4174.67
4025.26
3875.94
3726.69
3577.53
3428.46
3279.47
3130.57
2981.75
2833.01
2684.33
2535.72
2387.16
2238.64
2090.15
1941.68
1793.21
1644.74
1496.24
1347.71
1199.12
1050.47
901.742
752.909
603.956
454.899
305.812
155.942
40.688
-0.0799523
-0.262189
-0.44882
-0.634307
-0.820549
-1.0061
-1.19222
-1.3781
-1.56403
-1.74994
14667.6
14520.5
14373.3
14226.2
14079.1
13932.1
13785
13638
13491
13344
13197
13050.1
12903.2
12756.2
12609.3
12462.4
12315.5
12168.7
12021.8
11874.9
11728.1
11581.3
11434.4
11287.6
11140.8
10993.9
10847.1
10700.3
10553.4
10406.6
10259.7
10112.8
9965.86
9818.91
9671.93
9524.92
9377.86
9230.76
9083.6
8936.38
8789.1
8641.75
8494.31
8346.8
8199.19
8051.48
7903.66
7755.73
7607.68
7459.51
7311.21
7162.77
7014.2
6865.49
6716.64
6567.65
6418.53
6269.28
6119.92
5970.44
5820.86
5671.19
5521.45
5371.65
5221.81
5071.94
4922.07
4772.21
4622.38
4472.6
4322.87
4173.21
4023.64
3874.15
3724.76
3575.46
3426.27
3277.18
3128.18
2979.28
2830.45
2681.71
2533.03
2384.41
2235.83
2087.28
1938.75
1790.22
1641.66
1493.07
1344.43
1195.72
1046.91
897.974
748.893
599.632
450.193
300.617
150.108
37.4618
-0.0746396
-0.257493
-0.444969
-0.631328
-0.818066
-1.00419
-1.19078
-1.37705
-1.56336
-1.74963
14668.9
14521.8
14374.6
14227.5
14080.4
13933.4
13786.3
13639.3
13492.3
13345.4
13198.4
13051.5
12904.5
12757.6
12610.7
12463.9
12317
12170.2
12023.3
11876.5
11729.7
11582.9
11436.1
11289.3
11142.5
10995.7
10848.9
10702.1
10555.2
10408.4
10261.6
10114.7
9967.85
9820.94
9674
9527.02
9380
9232.94
9085.81
8938.63
8791.38
8644.05
8496.64
8349.14
8201.54
8053.83
7906.01
7758.06
7609.99
7461.78
7313.43
7164.93
7016.28
6867.47
6718.51
6569.4
6420.14
6270.74
6121.2
5971.53
5821.75
5671.87
5521.91
5371.88
5221.81
5071.71
4921.6
4771.51
4621.45
4471.45
4321.51
4171.66
4021.91
3872.25
3722.71
3573.29
3423.97
3274.78
3125.69
2976.7
2827.81
2679
2530.27
2381.59
2232.97
2084.37
1935.81
1787.21
1638.59
1489.93
1341.19
1192.36
1043.41
894.294
744.982
595.423
445.61
295.565
144.355
34.2949
-0.069196
-0.25264
-0.441115
-0.62837
-0.815641
-1.00235
-1.18939
-1.37604
-1.56271
-1.74931
14670.2
14523
14375.9
14228.8
14081.7
13934.7
13787.6
13640.6
13493.7
13346.7
13199.8
13052.8
12905.9
12759
12612.2
12465.3
12318.5
12171.6
12024.8
11878
11731.2
11584.5
11437.7
11290.9
11144.2
10997.4
10850.6
10703.9
10557.1
10410.3
10263.5
10116.7
9969.86
9822.99
9676.1
9529.17
9382.19
9235.17
9088.09
8940.94
8793.73
8646.43
8499.05
8351.57
8203.99
8056.29
7908.47
7760.52
7612.43
7464.18
7315.79
7167.23
7018.5
6869.61
6720.54
6571.3
6421.89
6272.32
6122.59
5972.73
5822.74
5672.63
5522.42
5372.15
5221.82
5071.46
4921.1
4770.75
4620.45
4470.22
4320.06
4170
4020.06
3870.24
3720.54
3570.98
3421.55
3272.25
3123.07
2974.01
2825.06
2676.2
2527.42
2378.71
2230.05
2081.43
1932.82
1784.19
1635.53
1486.81
1338.01
1189.09
1040.02
890.749
741.242
591.408
441.243
290.771
138.934
31.2861
-0.0640519
-0.247606
-0.437568
-0.62556
-0.813375
-1.00065
-1.18811
-1.37511
-1.56211
-1.74901
14671.4
14524.3
14377.2
14230
14083
13935.9
13788.9
13641.9
13495
13348
13201.1
13054.2
12907.3
12760.4
12613.6
12466.7
12319.9
12173.1
12026.3
11879.5
11732.8
11586
11439.3
11292.6
11145.8
10999.1
10852.4
10705.7
10558.9
10412.2
10265.5
10118.7
9971.9
9825.08
9678.24
9531.35
9384.43
9237.45
9090.42
8943.32
8796.15
8648.9
8501.55
8354.11
8206.55
8058.87
7911.06
7763.11
7615
7466.74
7318.3
7169.69
7020.89
6871.9
6722.72
6573.35
6423.79
6274.04
6124.12
5974.04
5823.82
5673.46
5523
5372.45
5221.84
5071.2
4920.56
4769.94
4619.37
4468.88
4318.49
4168.22
4018.07
3868.07
3718.22
3568.52
3418.97
3269.57
3120.32
2971.19
2822.19
2673.29
2524.48
2375.75
2227.08
2078.44
1929.81
1781.17
1632.49
1483.74
1334.9
1185.92
1036.77
887.381
737.709
587.709
437.282
286.485
134.098
28.5263
-0.058929
-0.242932
-0.434381
-0.622963
-0.81136
-0.999168
-1.187
-1.37432
-1.56159
-1.74872
14672.6
14525.5
14378.4
14231.3
14084.2
13937.2
13790.2
13643.2
13496.2
13349.3
13202.4
13055.5
12908.6
12761.8
12614.9
12468.1
12321.3
12174.6
12027.8
11881.1
11734.3
11587.6
11440.9
11294.2
11147.5
11000.8
10854.2
10707.5
10560.8
10414.1
10267.4
10120.7
9973.95
9827.19
9680.4
9533.58
9386.71
9239.79
9092.81
8945.77
8798.65
8651.45
8504.15
8356.75
8209.23
8061.58
7913.79
7765.84
7617.74
7469.45
7320.99
7172.32
7023.45
6874.38
6725.08
6575.58
6425.86
6275.93
6125.8
5975.49
5825.01
5674.39
5523.64
5372.79
5221.88
5070.93
4919.98
4769.06
4618.2
4467.44
4316.79
4166.27
4015.92
3865.73
3715.72
3565.88
3416.22
3266.73
3117.41
2968.23
2819.19
2670.26
2521.44
2372.71
2224.03
2075.4
1926.78
1778.15
1629.48
1480.73
1331.88
1182.89
1033.71
884.281
734.539
584.398
433.769
282.712
129.869
26.1371
-0.0539702
-0.239107
-0.431515
-0.620781
-0.809724
-0.998008
-1.18615
-1.37371
-1.56119
-1.74848
14673.8
14526.7
14379.6
14232.5
14085.4
13938.4
13791.4
13644.4
13497.5
13350.6
13203.7
13056.8
12909.9
12763.1
12616.3
12469.5
12322.7
12176
12029.3
11882.5
11735.8
11589.2
11442.5
11295.8
11149.2
11002.6
10855.9
10709.3
10562.7
10416
10269.4
10122.7
9976.03
9829.33
9682.61
9535.84
9389.04
9242.18
9095.27
8948.29
8801.24
8654.09
8506.85
8359.5
8212.02
8064.41
7916.66
7768.73
7620.63
7472.35
7323.85
7175.15
7026.22
6877.05
6727.65
6578
6428.12
6277.99
6127.65
5977.09
5826.34
5675.42
5524.36
5373.18
5221.93
5070.64
4919.34
4768.09
4616.91
4465.84
4314.91
4164.15
4013.57
3863.19
3713.01
3563.04
3413.27
3263.7
3114.31
2965.1
2816.03
2667.1
2518.29
2369.57
2220.92
2072.31
1923.73
1775.13
1626.5
1477.79
1328.98
1180.02
1030.87
881.452
731.701
581.513
430.785
279.587
126.439
24.2435
-0.049606
-0.23612
-0.429268
-0.619214
-0.808624
-0.997281
-1.18563
-1.37335
-1.56093
-1.74829
14675
14527.9
14380.8
14233.7
14086.6
13939.6
13792.6
13645.7
13498.7
13351.8
13204.9
13058.1
12911.2
12764.4
12617.6
12470.9
12324.1
12177.4
12030.7
11884
11737.4
11590.7
11444.1
11297.5
11150.9
11004.3
10857.7
10711.1
10564.5
10417.9
10271.3
10124.7
9978.13
9831.5
9684.84
9538.14
9391.41
9244.63
9097.79
8950.88
8803.9
8656.83
8509.65
8362.37
8214.95
8067.39
7919.68
7771.79
7623.71
7475.43
7326.92
7178.18
7029.2
6879.95
6730.44
6580.66
6430.6
6280.27
6129.69
5978.86
5827.82
5676.57
5525.16
5373.61
5221.98
5070.31
4918.63
4767.01
4615.48
4464.08
4312.85
4161.81
4010.99
3860.41
3710.07
3559.96
3410.09
3260.45
3111.02
2961.78
2812.71
2663.79
2515
2366.32
2217.72
2069.16
1920.64
1772.11
1623.55
1474.93
1326.2
1177.32
1028.25
878.909
729.234
579.113
428.421
277.239
124.025
22.9556
-0.0444685
-0.234202
-0.427862
-0.61849
-0.808218
-0.99711
-1.18554
-1.37329
-1.56086
-1.74816
14676.2
14529
14381.9
14234.8
14087.8
13940.8
13793.8
13646.8
13499.9
13353
13206.2
13059.3
12912.5
12765.7
12618.9
12472.2
12325.5
12178.8
12032.1
11885.5
11738.8
11592.2
11445.6
11299.1
11152.5
11006
10859.4
10712.9
10566.4
10419.9
10273.3
10126.8
9980.25
9833.69
9687.1
9540.48
9393.83
9247.12
9100.37
8953.54
8806.64
8659.65
8512.56
8365.35
8218.01
8070.52
7922.86
7775.02
7626.98
7478.72
7330.21
7181.45
7032.42
6883.1
6733.49
6583.56
6433.33
6282.78
6131.94
5980.83
5829.45
5677.85
5526.05
5374.1
5222.04
5069.94
4917.84
4765.8
4613.87
4462.1
4310.54
4159.21
4008.14
3857.35
3706.84
3556.61
3406.65
3256.95
3107.49
2958.24
2809.19
2660.31
2511.58
2362.95
2214.42
2065.95
1917.52
1769.1
1620.65
1472.13
1323.52
1174.77
1025.84
876.661
727.161
577.23
426.738
275.755
122.801
22.3623
-0.0383598
-0.234599
-0.427681
-0.618906
-0.808675
-0.997612
-1.18593
-1.37356
-1.56099
-1.74813
14677.3
14530.2
14383
14236
14088.9
13941.9
13795
13648
13501.1
13354.2
13207.4
13060.5
12913.7
12767
12620.2
12473.5
12326.8
12180.2
12033.5
11886.9
11740.3
11593.7
11447.2
11300.7
11154.2
11007.7
10861.2
10714.7
10568.2
10421.8
10275.3
10128.9
9982.38
9835.89
9689.38
9542.85
9396.28
9249.67
9103
8956.28
8809.47
8662.58
8515.58
8368.46
8221.21
8073.8
7926.22
7778.45
7630.46
7482.23
7333.74
7184.98
7035.92
6886.53
6736.81
6586.75
6436.33
6285.56
6134.44
5983.01
5831.28
5679.28
5527.05
5374.64
5222.11
5069.52
4916.93
4764.42
4612.05
4459.88
4307.95
4156.3
4004.96
3853.95
3703.27
3552.93
3402.89
3253.15
3103.69
2954.46
2805.46
2656.64
2507.98
2359.45
2211.03
2062.67
1914.36
1766.06
1617.75
1469.39
1320.95
1172.38
1023.65
874.702
725.475
575.863
425.749
275.156
122.855
22.5049
-0.0371813
-0.23807
-0.429277
-0.620804
-0.810162
-0.99887
-1.18686
-1.37421
-1.56134
-1.74819
14678.4
14531.2
14384.1
14237.1
14090
13943
13796.1
13649.1
13502.2
13355.4
13208.5
13061.7
12914.9
12768.2
12621.5
12474.8
12328.1
12181.5
12034.9
11888.3
11741.7
11595.2
11448.7
11302.2
11155.8
11009.3
10862.9
10716.5
10570.1
10423.7
10277.3
10130.9
9984.52
9838.11
9691.69
9545.25
9398.78
9252.26
9105.7
8959.08
8812.38
8665.59
8518.7
8371.69
8224.55
8077.24
7929.76
7782.07
7634.15
7485.98
7337.54
7188.78
7039.7
6890.26
6740.45
6590.25
6439.65
6288.64
6137.23
5985.46
5833.34
5680.89
5528.17
5375.24
5222.17
5069.03
4915.89
4762.84
4609.97
4457.34
4305
4153.01
4001.39
3850.16
3699.32
3548.87
3398.78
3249.03
3099.58
2950.41
2801.48
2652.75
2504.2
2355.81
2207.52
2059.3
1911.14
1763
1614.86
1466.68
1318.44
1170.1
1021.64
873.002
724.146
574.971
425.415
275.404
124.151
23.3865
-0.0440523
-0.244646
-0.43263
-0.624473
-0.812695
-1.00091
-1.18832
-1.37519
-1.56189
-1.74834
14679.4
14532.3
14385.2
14238.1
14091.1
13944.1
13797.2
13650.2
13503.3
13356.5
13209.7
13062.9
12916.1
12769.4
12622.7
12476
12329.4
12182.8
12036.2
11889.7
11743.2
11596.7
11450.2
11303.8
11157.4
11011
10864.6
10718.3
10571.9
10425.6
10279.3
10133
9986.66
9840.34
9694.02
9547.67
9401.3
9254.9
9108.45
8961.94
8815.36
8668.7
8521.94
8375.05
8228.03
8080.85
7933.48
7785.9
7638.08
7490
7341.61
7192.89
7043.81
6894.33
6744.44
6594.11
6443.33
6292.07
6140.36
5988.21
5835.65
5682.71
5529.44
5375.92
5222.23
5068.45
4914.68
4761.02
4607.57
4454.42
4301.64
4149.26
3997.34
3845.89
3694.9
3544.36
3394.24
3244.52
3095.13
2946.04
2797.22
2648.62
2500.25
2352.01
2203.88
2055.83
1907.85
1759.89
1611.95
1463.99
1315.99
1167.92
1019.78
871.509
723.11
574.477
425.639
276.409
126.486
24.9861
-0.0544319
-0.25341
-0.438303
-0.629627
-0.816193
-1.00371
-1.19029
-1.37653
-1.56265
-1.74858
14680.5
14533.3
14386.2
14239.1
14092.1
13945.2
13798.2
13651.3
13504.4
13357.6
13210.8
13064
12917.3
12770.6
12623.9
12477.2
12330.6
12184.1
12037.5
11891
11744.5
11598.1
11451.7
11305.3
11158.9
11012.6
10866.3
10720
10573.7
10427.5
10281.3
10135
9988.8
9842.58
9696.36
9550.12
9403.86
9257.57
9111.24
8964.86
8818.42
8671.9
8525.28
8378.54
8231.66
8084.62
7937.4
7789.95
7642.26
7494.28
7345.98
7197.32
7048.27
6898.78
6748.83
6598.39
6447.42
6295.92
6143.87
5991.3
5838.26
5684.76
5530.88
5376.68
5222.27
5067.75
4913.24
4758.87
4604.78
4451.03
4297.74
4144.96
3992.73
3841.05
3689.93
3539.34
3389.23
3239.57
3090.29
2941.34
2792.64
2644.31
2496.09
2348.03
2200.1
2052.25
1904.46
1756.72
1609
1461.28
1313.56
1165.79
1018.01
870.152
722.276
574.264
426.256
277.977
129.572
27.1745
-0.0664379
-0.263911
-0.445695
-0.63574
-0.820448
-1.00705
-1.19258
-1.37812
-1.56357
-1.74888
14681.4
14534.3
14387.2
14240.1
14093.1
13946.2
13799.2
13652.3
13505.5
13358.6
13211.8
13065.1
12918.4
12771.7
12625
12478.4
12331.9
12185.3
12038.8
11892.3
11745.9
11599.5
11453.1
11306.8
11160.5
11014.2
10868
10721.7
10575.5
10429.4
10283.2
10137.1
9990.94
9844.82
9698.7
9552.57
9406.43
9260.27
9114.08
8967.84
8821.55
8675.18
8528.72
8382.15
8235.44
8088.57
7941.51
7794.24
7646.69
7498.85
7350.67
7202.11
7053.12
6903.65
6753.67
6603.13
6451.98
6300.22
6147.83
5994.81
5841.23
5687.1
5532.51
5377.52
5222.28
5066.9
4911.53
4756.34
4601.47
4447.06
4293.2
4139.98
3987.42
3835.53
3684.31
3533.7
3383.66
3234.12
3085.01
2936.28
2787.91
2639.69
2491.69
2343.86
2196.15
2048.53
1900.98
1753.47
1605.99
1458.54
1311.11
1163.66
1016.25
868.829
721.514
574.154
427.047
279.788
133.072
29.738
-0.0818493
-0.27559
-0.454487
-0.642267
-0.825256
-1.01068
-1.19513
-1.37988
-1.5646
-1.74926
14682.4
14535.3
14388.2
14241.1
14094.1
13947.1
13800.2
13653.3
13506.5
13359.7
13212.9
13066.1
12919.4
12772.8
12626.2
12479.6
12333
12186.5
12040
11893.6
11747.2
11600.9
11454.5
11308.2
11162
11015.8
10869.6
10723.4
10577.3
10431.2
10285.1
10139.1
9993.06
9847.05
9701.04
9555.03
9409.02
9263
9116.95
8970.87
8824.74
8678.54
8532.26
8385.87
8239.36
8092.69
7945.83
7798.74
7651.39
7503.73
7355.71
7207.29
7058.4
6908.99
6759
6608.38
6457.08
6305.07
6152.31
5998.81
5844.62
5689.79
5534.37
5378.47
5222.25
5065.85
4909.47
4753.29
4597.54
4442.35
4287.86
4134.15
3981.26
3829.19
3677.91
3527.35
3377.44
3228.1
3079.24
2930.79
2782.66
2634.75
2487.04
2339.48
2192.03
2044.67
1897.37
1750.12
1602.91
1455.73
1308.6
1161.47
1014.44
867.434
720.659
573.94
427.718
281.561
136.464
32.3608
-0.101962
-0.286218
-0.464129
-0.648662
-0.830232
-1.01427
-1.19767
-1.38165
-1.56566
-1.74969
14683.3
14536.2
14389.1
14242
14095
13948.1
13801.1
13654.3
13507.4
13360.6
13213.9
13067.2
12920.5
12773.8
12627.2
12480.7
12334.2
12187.7
12041.2
11894.8
11748.5
11602.2
11455.9
11309.7
11163.5
11017.3
10871.2
10725.1
10579
10433
10287
10141.1
9995.16
9849.26
9703.37
9557.49
9411.61
9265.74
9119.85
8973.93
8827.98
8681.97
8535.88
8389.71
8243.41
8096.97
7950.34
7803.49
7656.36
7508.93
7361.12
7212.88
7064.14
6914.83
6764.89
6614.23
6462.8
6310.54
6157.41
6003.38
5848.52
5692.88
5536.51
5379.55
5222.16
5064.55
4906.94
4749.6
4592.79
4436.71
4281.5
4127.27
3974.06
3821.85
3670.58
3520.16
3370.48
3221.44
3072.93
2924.84
2777.05
2629.5
2482.13
2334.89
2187.74
2040.67
1893.65
1746.67
1599.73
1452.83
1305.99
1159.18
1012.49
865.874
719.577
573.44
427.977
282.867
138.988
34.6813
-0.12194
-0.295392
-0.473162
-0.654447
-0.834924
-1.01759
-1.20011
-1.38335
-1.5667
-1.75016
14684.2
14537
14389.9
14242.9
14095.9
13949
13802
13655.2
13508.3
13361.6
13214.8
13068.1