/*--------------------------------*- C++ -*----------------------------------*\
| =========                 |                                                 |
| \\      /  F ield         | OpenFOAM: The Open Source CFD Toolbox           |
|  \\    /   O peration     | Version:  v2106                                 |
|   \\  /    A nd           | Website:  www.openfoam.com                      |
|    \\/     M anipulation  |                                                 |
\*---------------------------------------------------------------------------*/
FoamFile
{
    version     2.0;
    format      ascii;
    arch        "LSB;label=32;scalar=64";
    class       volScalarField;
    location    "1";
    object      p_rgh;
}
// * * * * * * * * * * * * * * * * * * * * * * * * * * * * * * * * * * * * * //

dimensions      [1 -1 -2 0 0 0 0];

internalField   nonuniform List<scalar> 
29678
(
0.737958
0.739146
0.741325
0.743885
0.746633
0.749461
0.752385
0.755465
0.758753
0.762263
0.765981
0.769869
0.773866
0.777899
0.781631
0.785226
0.789378
0.794125
0.799274
0.804805
0.810808
0.816766
0.822232
0.827359
0.832202
0.836728
0.840869
0.844548
0.847681
0.850181
0.851959
0.852921
0.852966
0.851983
0.849856
0.846466
0.841704
0.835471
0.827673
0.818224
0.807037
0.794035
0.779176
0.762529
0.744434
0.724186
0.700837
0.67416
0.643905
0.611316
0.576989
0.540412
0.501751
0.461036
0.418291
0.373575
0.326984
0.278663
0.228813
0.177709
0.125775
0.0738506
0.0211852
-0.0335015
-0.089734
-0.146978
-0.204654
-0.262048
-0.318884
-0.375129
-0.43071
-0.485592
-0.539884
-0.59317
-0.644551
-0.693318
-0.738658
-0.78247
-0.825977
-0.868819
-0.911135
-0.953424
-0.995743
-1.03305
-1.06492
-1.09604
-1.12516
-1.15124
-1.17389
-1.1929
-1.20823
-1.22013
-1.22942
-1.23725
-1.24874
-1.2645
-1.30484
-1.46202
-1.40355
-0.059318
-0.0344109
-0.0149522
-0.0356051
-0.0246087
-0.0315571
-0.0261878
-0.0257848
-0.0211622
-0.0179644
-0.015185
2.20661
2.20745
2.20901
2.21125
2.21472
2.21975
2.22637
2.23445
2.24379
2.25417
2.2654
2.27724
2.28949
2.30253
2.31694
2.33251
2.3488
2.36555
2.38269
2.40025
2.41831
2.4361
2.4529
2.46887
2.48399
2.49814
2.51112
2.52273
2.53271
2.54083
2.54681
2.55039
2.55126
2.5491
2.54356
2.53431
2.52104
2.50345
2.48128
2.45427
2.42214
2.38463
2.34151
2.29267
2.23843
2.17772
2.10939
2.03364
1.9504
1.85944
1.76015
1.65349
1.54043
1.42096
1.2951
1.16298
1.0248
0.880915
0.731822
0.578126
0.420617
0.260117
0.0956277
-0.0732687
-0.244943
-0.418774
-0.59369
-0.768149
-0.941453
-1.11334
-1.28352
-1.4518
-1.61832
-1.78235
-1.94246
-2.09805
-2.24849
-2.39281
-2.53211
-2.66784
-2.79979
-2.92774
-3.04689
-3.15224
-3.24903
-3.34278
-3.42978
-3.5083
-3.57723
-3.63562
-3.68277
-3.71846
-3.74324
-3.75817
-3.7698
-3.77135
-3.8061
-3.86476
-3.85755
-0.128404
-0.0482834
-0.0186899
-0.0395346
-0.0251985
-0.0280974
-0.0231393
-0.0216906
-0.0179423
-0.0153124
-0.0131113
3.6733
3.67424
3.67613
3.67921
3.68459
3.6928
3.70384
3.71739
3.73308
3.75051
3.76932
3.7891
3.81046
3.83424
3.86035
3.8879
3.91591
3.9442
3.97285
4.00175
4.03068
4.05921
4.08687
4.11344
4.13874
4.16247
4.18431
4.20389
4.2208
4.23464
4.24498
4.25133
4.25319
4.25001
4.24123
4.22628
4.20466
4.17588
4.13949
4.09502
4.04199
3.97987
3.90817
3.82647
3.73441
3.63134
3.51676
3.39098
3.25439
3.10582
2.94403
2.7688
2.58116
2.38254
2.173
1.95282
1.72234
1.48212
1.23295
0.975747
0.711401
0.439589
0.160887
-0.12247
-0.409013
-0.698147
-0.988727
-1.27931
-1.5687
-1.85602
-2.14054
-2.42166
-2.69884
-2.97126
-3.238
-3.49869
-3.75366
-4.00024
-4.2367
-4.46499
-4.68549
-4.8941
-5.08663
-5.26549
-5.43483
-5.59409
-5.74115
-5.87421
-5.99153
-6.09147
-6.17264
-6.23416
-6.27585
-6.29802
-6.30685
-6.28712
-6.30872
-6.26005
-6.36393
-0.11933
-0.0282293
-0.0133481
-0.0211674
-0.0188151
-0.0192441
-0.0179112
-0.0172258
-0.0152446
-0.0135594
-0.0119258
5.13728
5.1384
5.14075
5.14486
5.15236
5.16396
5.17961
5.19882
5.22101
5.24565
5.27221
5.30103
5.33334
5.36876
5.40567
5.44364
5.48254
5.52215
5.56229
5.60267
5.64295
5.68269
5.72147
5.75891
5.79465
5.82826
5.85928
5.88719
5.91144
5.93144
5.94656
5.95616
5.9595
5.95581
5.94429
5.9242
5.89479
5.85539
5.80534
5.74393
5.67043
5.58411
5.48422
5.37008
5.24108
5.09662
4.93623
4.75976
4.56719
4.35845
4.13399
3.89225
3.63189
3.35412
3.06056
2.75187
2.42847
2.09115
1.74106
1.37953
1.00726
0.62342
0.230494
-0.167809
-0.570457
-0.976424
-1.38424
-1.79222
-2.19881
-2.60266
-3.00262
-3.39768
-3.7869
-4.1693
-4.54399
-4.91041
-5.26816
-5.61612
-5.95193
-6.27432
-6.58202
-6.8717
-7.14305
-7.39808
-7.63861
-7.864
-8.07247
-8.2618
-8.42962
-8.57356
-8.69142
-8.78142
-8.84209
-8.87235
-8.87618
-8.83051
-8.82808
-8.66018
-8.7826
-0.110121
-0.0150913
-0.0135323
-0.0162471
-0.0159484
-0.0161144
-0.0148449
-0.0143576
-0.0128771
-0.0115826
-0.0102576
6.59785
6.5992
6.60213
6.60741
6.61716
6.6323
6.6527
6.6777
6.70656
6.73862
6.77358
6.81269
6.856
6.90161
6.94876
6.99744
7.04749
7.09862
7.15046
7.20262
7.25464
7.30604
7.35634
7.40505
7.45166
7.49564
7.53636
7.57318
7.60535
7.63213
7.65272
7.66624
7.67176
7.66829
7.65482
7.63037
7.594
7.5448
7.48186
7.40426
7.31103
7.20119
7.0738
6.92796
6.76286
6.57781
6.37223
6.14581
5.89839
5.62992
5.34046
5.03003
4.69735
4.34147
3.9636
3.56528
3.14788
2.71268
2.26102
1.79389
1.31163
0.815339
0.308328
-0.206212
-0.726727
-1.2515
-1.77858
-2.30592
-2.83156
-3.35374
-3.87089
-4.38164
-4.8847
-5.37889
-5.86314
-6.33655
-6.79834
-7.24728
-7.68111
-8.09755
-8.49386
-8.86796
-9.22008
-9.55219
-9.86525
-10.1587
-10.4307
-10.6788
-10.9
-11.0912
-11.2496
-11.3721
-11.4556
-11.4971
-11.4966
-11.4261
-11.3913
-11.0919
-11.2141
-0.0994689
-0.00760768
-0.0125264
-0.0120107
-0.0126114
-0.0133532
-0.0122541
-0.0121286
-0.0110292
-0.0100454
-0.00893944
8.05423
8.05586
8.05949
8.06609
8.07826
8.09707
8.12237
8.15331
8.18901
8.22872
8.27311
8.32272
8.37602
8.43151
8.48917
8.5489
8.61045
8.6734
8.7373
8.80163
8.86585
8.9294
8.99172
9.05224
9.11033
9.16531
9.21643
9.26288
9.30375
9.33811
9.36499
9.3833
9.39191
9.38962
9.37519
9.34742
9.30513
9.24717
9.17239
9.07961
8.96763
8.83524
8.6813
8.50471
8.30446
8.0797
7.82973
7.55411
7.25258
6.92502
6.57132
6.19125
5.78419
5.34967
4.88782
4.40002
3.88802
3.35349
2.79786
2.22261
1.62887
1.01912
0.396371
-0.236516
-0.877141
-1.52307
-2.1718
-2.82082
-3.46774
-4.11038
-4.74677
-5.37514
-5.9939
-6.60152
-7.19662
-7.77797
-8.34441
-8.89448
-9.42592
-9.93586
-10.4218
-10.8824
-11.318
-11.7297
-12.1179
-12.4822
-12.8207
-13.1308
-13.4092
-13.6524
-13.8564
-14.0173
-14.13
-14.189
-14.1897
-14.1027
-14.0351
-13.6131
-13.7352
-0.0923994
-0.00507761
-0.0120862
-0.0103162
-0.0105039
-0.0116258
-0.0103508
-0.0104077
-0.00950991
-0.0087138
-0.00777795
9.50557
9.50755
9.51198
9.52004
9.53475
9.55738
9.58773
9.62478
9.66744
9.7156
9.76997
9.82951
9.89229
9.95796
10.0265
10.0976
10.171
10.2462
10.3225
10.3995
10.4765
10.5528
10.6278
10.7008
10.7712
10.838
10.9003
10.9573
11.0078
11.0507
11.0849
11.1091
11.1219
11.1219
11.1078
11.0779
11.031
10.9655
10.8802
10.7735
10.644
10.4903
10.311
10.1048
9.87052
9.60706
9.31361
8.98957
8.63456
8.24832
7.83061
7.38112
6.89942
6.38513
5.83855
5.26083
4.65334
4.01777
3.35618
2.67075
1.96352
1.23753
0.496014
-0.257919
-1.02129
-1.79104
-2.5641
-3.33745
-4.10824
-4.8738
-5.63174
-6.3799
-7.11627
-7.83896
-8.5462
-9.23644
-9.90822
-10.5598
-11.1889
-11.7929
-12.37
-12.9192
-13.4403
-13.9337
-14.3998
-14.8379
-15.2464
-15.6226
-15.963
-16.2639
-16.5206
-16.7277
-16.8784
-16.9651
-16.9779
-16.8893
-16.7967
-16.2779
-16.4039
-0.0856093
-0.00503779
-0.0114456
-0.00955088
-0.00898984
-0.0103759
-0.00892147
-0.00906061
-0.00831377
-0.00764968
-0.00685013
10.951
10.9534
10.9587
10.9683
10.9857
11.0123
11.0478
11.0911
11.1414
11.1989
11.2629
11.3316
11.4042
11.4804
11.5601
11.643
11.7287
11.8165
11.9059
11.9961
12.0865
12.1763
12.2648
12.3512
12.4347
12.5143
12.5889
12.6574
12.7186
12.7712
12.8139
12.8452
12.8635
12.8673
12.8548
12.8243
12.7742
12.7028
12.6084
12.4893
12.3438
12.1703
11.9671
11.7326
11.4655
11.1645
10.8286
10.4569
10.049
9.60436
9.12262
8.60338
8.04633
7.45135
6.81877
6.14949
5.44482
4.70661
3.93738
3.13983
2.31685
1.47193
0.608641
-0.269418
-1.15861
-2.05527
-2.95575
-3.8565
-4.75411
-5.64544
-6.52762
-7.39801
-8.25415
-9.0937
-9.91457
-10.7149
-11.4931
-12.2471
-12.9749
-13.6741
-14.3436
-14.9827
-15.5907
-16.1678
-16.7142
-17.2294
-17.7117
-18.1586
-18.5668
-18.9322
-19.2497
-19.5129
-19.7132
-19.8411
-19.8825
-19.8128
-19.7122
-19.1367
-19.2777
-0.0793098
-0.00625736
-0.0106857
-0.00938901
-0.00799526
-0.00940148
-0.00783294
-0.00795602
-0.00733009
-0.00677305
-0.00610373
12.3896
12.3924
12.3987
12.41
12.4301
12.4608
12.5016
12.5517
12.6105
12.6774
12.7504
12.8284
12.9111
12.9982
13.0895
13.1847
13.2831
13.3841
13.4871
13.5913
13.6958
13.7999
13.9028
14.0036
14.1013
14.1947
14.2828
14.3641
14.4372
14.5009
14.5534
14.5932
14.6186
14.6276
14.6184
14.589
14.5375
14.4619
14.3603
14.2306
14.0709
13.8793
13.6538
13.3926
13.0942
12.7569
12.3796
11.9612
11.5009
10.9981
10.4523
9.86291
9.22971
8.55267
7.83223
7.06931
6.26536
5.42254
4.54372
3.63204
2.69088
1.72413
0.73586
-0.269728
-1.28832
-2.31554
-3.3471
-4.37882
-5.40673
-6.42713
-7.4366
-8.43199
-9.41031
-10.3688
-11.3051
-12.2171
-13.1029
-13.9607
-14.7883
-15.5841
-16.3468
-17.0767
-17.7729
-18.4355
-19.0647
-19.66
-20.22
-20.7426
-21.2248
-21.6624
-22.0501
-22.3807
-22.6446
-22.8306
-22.9214
-22.896
-22.8134
-22.2313
-22.4073
-0.0745872
-0.00800161
-0.0100408
-0.00915057
-0.00725163
-0.0084853
-0.00693513
-0.00700133
-0.00649334
-0.0060432
-0.00551062
13.8205
13.8237
13.831
13.844
13.8669
13.9017
13.9484
14.0061
14.0739
14.1495
14.2313
14.319
14.4122
14.5108
14.6142
14.722
14.8337
14.9485
15.0658
15.1846
15.3041
15.4236
15.5419
15.6582
15.7712
15.8798
15.9825
16.0779
16.1645
16.2407
16.3047
16.3547
16.3889
16.405
16.4009
16.3746
16.3236
16.2459
16.1391
16.0008
15.8289
15.6211
15.3753
15.0893
14.7612
14.3892
13.9717
13.5076
12.9957
12.4351
11.8252
11.1653
10.4553
9.69502
8.88511
8.02658
7.1211
6.17113
5.18004
4.15128
3.08866
1.99653
0.879523
-0.257535
-1.40964
-2.5717
-3.73863
-4.90553
-6.06774
-7.22096
-8.36119
-9.48466
-10.5879
-11.6677
-12.7214
-13.7468
-14.7418
-15.7046
-16.6335
-17.5269
-18.384
-19.2051
-19.9905
-20.7403
-21.4544
-22.1326
-22.7742
-23.3775
-23.94
-24.4579
-24.9259
-25.3365
-25.6796
-25.9433
-26.1081
-26.1563
-26.1254
-25.5925
-25.8332
-0.0714202
-0.00982918
-0.00945932
-0.0085802
-0.00653157
-0.00750016
-0.0060878
-0.00610817
-0.00572761
-0.00540396
-0.00503022
15.2427
15.2464
15.2547
15.2693
15.2951
15.3341
15.3875
15.4537
15.53
15.6138
15.7049
15.8027
15.907
16.0174
16.1333
16.2544
16.3799
16.5092
16.6415
16.7758
16.9114
17.0471
17.1821
17.3151
17.4448
17.5698
17.6886
17.7997
17.9013
17.9916
18.0689
18.1311
18.1759
18.2012
18.2044
18.1833
18.1352
18.0576
17.9479
17.8034
17.6217
17.4
17.136
16.8273
16.4715
16.0665
15.6104
15.1017
14.539
13.9212
13.2474
12.5168
11.7292
10.8846
9.98355
9.02735
8.01786
6.95789
5.85135
4.70191
3.51384
2.292
1.04168
-0.231591
-1.52205
-2.82382
-4.13101
-5.43787
-6.73897
-8.02929
-9.30416
-10.5592
-11.7904
-12.9942
-14.1676
-15.3084
-16.4144
-17.4836
-18.5148
-19.5067
-20.4589
-21.3718
-22.2472
-23.0851
-23.8857
-24.6494
-25.376
-26.0646
-26.7136
-27.3199
-27.8785
-28.3824
-28.8217
-29.1842
-29.4504
-29.6045
-29.6651
-29.2402
-29.5841
-0.068306
-0.0109388
-0.00851939
-0.00771619
-0.0056647
-0.00637628
-0.00518265
-0.00521203
-0.00498002
-0.00481489
-0.00463091
16.6552
16.6594
16.6687
16.685
16.7135
16.7577
16.8184
16.8929
16.977
17.0696
17.1703
17.2788
17.3946
17.5173
17.6463
17.7812
17.9213
18.0658
18.2139
18.3647
18.5172
18.6705
18.8232
18.9742
19.1219
19.2649
19.4014
19.5298
19.6482
19.7547
19.8472
19.9236
19.9814
20.018
20.0309
20.0175
19.9748
19.8999
19.79
19.6419
19.4529
19.22
18.9404
18.6114
18.2301
17.7942
17.3013
16.7495
16.1372
15.4629
14.7254
13.9239
13.058
12.1278
11.134
10.0779
8.96164
7.78841
6.56265
5.28833
3.97011
2.6135
1.22448
-0.190566
-1.62502
-3.07211
-4.52506
-5.97727
-7.42246
-8.85477
-10.2687
-11.6593
-13.022
-14.3528
-15.6487
-16.907
-18.1255
-19.3026
-20.437
-21.5281
-22.5758
-23.5809
-24.5461
-25.4726
-26.3608
-27.2116
-28.0258
-28.8038
-29.5449
-30.2471
-30.9066
-31.517
-32.0699
-32.5537
-32.9499
-33.2445
-33.4404
-33.184
-33.6773
-0.0641659
-0.0105221
-0.00699681
-0.00640758
-0.00447636
-0.00505995
-0.00413352
-0.00425833
-0.00420935
-0.00424348
-0.0042859
18.057
18.0617
18.0719
18.0898
18.1213
18.1716
18.2401
18.3222
18.4143
18.5159
18.6268
18.7464
18.8742
19.0097
19.1524
19.3017
19.457
19.6175
19.7823
19.9506
20.1213
20.2932
20.4651
20.6354
20.8027
20.9651
21.121
21.2686
21.4058
21.5305
21.6406
21.7334
21.8066
21.8572
21.8825
21.8794
21.8449
21.7757
21.6684
21.5198
21.3265
21.0854
20.7931
20.4465
20.0424
19.5779
19.0503
18.4572
17.7966
17.0667
16.2661
15.3937
14.4489
13.4319
12.3434
11.1849
9.95883
8.66864
7.31934
5.91517
4.46136
2.96411
1.43025
-0.132921
-1.71782
-3.31668
-4.92175
-6.52549
-8.12071
-9.7006
-11.2588
-12.7895
-14.2876
-15.749
-17.1701
-18.5482
-19.8809
-21.1669
-22.4051
-23.5955
-24.7387
-25.8361
-26.8902
-27.9048
-28.8806
-29.8193
-30.7231
-31.5936
-32.4315
-33.2363
-34.0058
-34.7356
-35.4191
-36.0464
-36.6014
-37.0725
-37.4494
-37.4231
-38.1193
-0.0588691
-0.00846986
-0.00479823
-0.0045563
-0.00288905
-0.00352692
-0.00289506
-0.00321423
-0.0033936
-0.00367091
-0.00397593
19.447
19.4522
19.4634
19.4828
19.5178
19.5748
19.6511
19.7405
19.8408
19.952
20.0734
20.2046
20.3449
20.4938
20.6507
20.8152
20.9865
21.1638
21.3464
21.5332
21.7232
21.915
22.1073
22.2984
22.4867
22.6704
22.8476
23.0163
23.1745
23.3197
23.4497
23.5617
23.6528
23.7203
23.7608
23.7712
23.7481
23.6877
23.5864
23.4405
23.2464
23.0004
22.6987
22.3376
21.9137
21.4234
20.8635
20.2314
19.5243
18.7401
17.8769
16.9336
15.9094
14.8044
13.6193
12.3558
11.0164
9.60503
8.12725
6.58757
4.99195
3.3474
1.66171
-0.0568113
-1.79954
-3.55762
-5.32224
-7.08474
-8.83686
-10.5707
-12.279
-13.955
-15.5932
-17.1888
-18.7382
-20.2382
-21.6868
-23.0824
-24.4247
-25.7142
-26.9522
-28.1408
-29.2828
-30.3838
-31.4463
-32.4726
-33.4664
-34.4311
-35.3691
-36.2817
-37.1691
-38.0297
-38.8594
-39.6511
-40.3924
-41.0754
-41.6795
-41.9441
-42.9031
-0.052775
-0.0053424
-0.00197166
-0.00219691
-0.000940884
-0.00176714
-0.00145736
-0.00207041
-0.00253366
-0.00309199
-0.00368743
20.8239
20.8297
20.842
20.863
20.9025
20.9662
21.05
21.1467
21.2557
21.3768
21.5092
21.6523
21.8056
21.9685
22.1404
22.3207
22.5088
22.7039
22.9053
23.1118
23.3222
23.5353
23.7494
23.9628
24.1738
24.3806
24.581
24.7731
24.9545
25.1228
25.2753
25.4091
25.5213
25.6086
25.6676
25.6948
25.6865
25.6385
25.5469
25.4076
25.2165
24.9693
24.6619
24.2901
23.8496
23.3367
22.7476
22.0789
21.3274
20.4904
19.5657
18.5519
17.4479
16.2537
14.97
13.5985
12.142
10.6047
8.9928
7.31132
5.56693
3.76755
1.92206
0.0398592
-1.86928
-3.79528
-5.72807
-7.65772
-9.57467
-11.4698
-13.3347
-15.162
-16.9453
-18.6793
-20.36
-21.9842
-23.5498
-25.0557
-26.5019
-27.8896
-29.221
-30.499
-31.7274
-32.9117
-34.0583
-35.1707
-36.2537
-37.3126
-38.352
-39.3757
-40.3866
-41.3868
-42.3757
-43.35
-44.3024
-45.2301
-46.106
-46.7191
-48.0068
-0.0460252
-0.00164092
0.00135328
0.000623668
0.00129715
0.00018693
0.000133124
-0.000818415
-0.00162747
-0.00250328
-0.0034098
22.1867
22.193
22.2063
22.2293
22.274
22.3449
22.4357
22.54
22.6579
22.7892
22.933
23.0886
23.2554
23.4328
23.6203
23.8173
24.0232
24.2371
24.4583
24.6856
24.9178
25.1534
25.3907
25.628
25.8636
26.0953
26.3212
26.5389
26.7461
26.94
27.1179
27.2765
27.4128
27.5233
27.6043
27.652
27.6623
27.6308
27.553
27.4245
27.2406
26.9965
26.6876
26.309
25.8562
25.3244
24.7094
24.007
23.2136
22.3258
21.341
20.2572
19.0732
17.7887
16.4043
14.9218
13.344
11.6756
9.92334
8.09303
6.19204
4.2293
2.21481
0.159235
-1.92631
-4.03033
-6.14126
-8.24767
-10.3385
-12.4032
-14.4323
-16.4174
-18.3513
-20.2282
-22.0436
-23.7942
-25.4781
-27.0943
-28.6436
-30.1279
-31.5505
-32.9152
-34.2268
-35.4912
-36.7176
-37.9127
-39.0819
-40.2329
-41.3727
-42.5079
-43.6451
-44.7903
-45.9476
-47.1185
-48.3026
-49.5033
-50.6917
-51.7061
-53.3934
-0.0386711
0.00239908
0.00507254
0.0038263
0.00380808
0.00235406
0.00184824
0.000523225
-0.000657624
-0.00188409
-0.00312883
23.534
23.5409
23.5552
23.5805
23.6308
23.709
23.8067
23.919
24.0463
24.1881
24.3436
24.5121
24.693
24.8857
25.0895
25.3041
25.5286
25.7624
26.0046
26.2539
26.509
26.7685
27.0306
27.2935
27.5554
27.8142
28.0678
28.3136
28.5491
28.7715
28.9776
29.1643
29.3281
29.4654
29.5723
29.6445
29.6776
29.667
29.6077
29.4946
29.3226
29.0864
28.7807
28.4001
27.9392
27.3929
26.756
26.0236
25.1913
24.2551
23.2119
22.0592
20.7952
19.4194
17.9321
16.3352
14.6317
12.8264
10.927
8.94005
6.87356
4.73764
2.54356
0.303404
-1.9701
-4.26376
-6.56425
-8.85838
-11.1334
-13.3772
-15.579
-17.7293
-19.82
-21.8447
-23.7983
-25.6776
-27.4805
-29.2068
-30.8578
-32.4364
-33.9469
-35.3943
-36.7847
-38.1251
-39.4256
-40.6972
-41.9473
-43.1857
-44.4219
-45.6658
-46.9281
-48.2194
-49.5492
-50.9254
-52.3556
-53.851
-55.3863
-56.8462
-59.0095
-0.0304278
0.00703861
0.00923631
0.00731513
0.00655634
0.00470605
0.00366344
0.00192927
0.000369618
-0.00123192
-0.00283645
24.8646
24.8722
24.8875
24.9156
24.9718
25.0572
25.162
25.2826
25.4196
25.5723
25.7399
25.9218
26.1173
26.3259
26.5469
26.7799
27.0241
27.2789
27.5431
27.8155
28.0949
28.3796
28.6681
28.9584
29.2486
29.5367
29.8202
30.0967
30.3633
30.617
30.8546
31.0727
31.2677
31.4357
31.5725
31.6737
31.7344
31.7495
31.7135
31.621
31.4662
31.2432
30.9461
30.5687
30.1051
29.5491
28.8949
28.1366
27.2691
26.2877
25.1884
23.968
22.6243
21.1563
19.5641
17.8494
16.0152
14.0671
12.013
9.86045
7.61828
5.2979
2.91201
0.474425
-2.00026
-4.49685
-6.99998
-9.49444
-11.9655
-14.3994
-16.7837
-19.1076
-21.362
-23.5397
-25.6353
-27.6453
-29.5678
-31.4033
-33.1538
-34.8234
-36.4175
-37.9423
-39.4055
-40.8159
-42.1839
-43.5229
-44.8455
-46.1635
-47.489
-48.8352
-50.2169
-51.6502
-53.1505
-54.7335
-56.4161
-58.2187
-60.1256
-62.0628
-64.7828
-0.021746
0.0120165
0.0137169
0.011024
0.00947401
0.00717015
0.00556066
0.00337476
0.00142692
-0.000559717
-0.00253194
26.1774
26.1856
26.202
26.2333
26.2958
26.3883
26.5003
26.6295
26.7765
26.9404
27.1206
27.3163
27.527
27.7522
27.9912
28.2436
28.5085
28.7852
29.0725
29.3693
29.6743
29.9858
30.3022
30.6217
30.9424
31.2619
31.5779
31.8876
32.1882
32.4763
32.7487
33.0018
33.2319
33.4348
33.606
33.7409
33.8342
33.8802
33.8732
33.8069
33.6752
33.4713
33.1888
32.8207
32.3602
31.8002
31.134
30.3548
29.4566
28.4336
27.281
25.9949
24.5723
23.0114
21.3123
19.4762
17.5063
15.4084
13.1912
10.863
8.43357
5.91584
3.32419
0.67447
-2.01654
-4.73137
-7.45228
-10.1617
-12.8426
-15.4792
-18.0571
-20.564
-22.9898
-25.3263
-27.5677
-29.7103
-31.7527
-33.6958
-35.5429
-37.299
-38.9709
-40.5663
-42.0945
-43.5663
-44.994
-46.3916
-47.7713
-49.159
-50.5634
-52.0011
-53.4917
-55.0565
-56.7182
-58.5007
-60.4317
-62.5427
-64.8317
-67.258
-70.6167
-0.0123398
0.0173292
0.0184132
0.0148748
0.0124528
0.0096528
0.00746222
0.0048154
0.00247928
0.000111797
-0.00221952
27.4708
27.4797
27.4975
27.5323
27.6014
27.701
27.8204
27.9585
28.1157
28.2911
28.4842
28.6943
28.9209
29.1633
29.4212
29.6938
29.9803
30.28
30.5916
30.9139
31.2458
31.5856
31.9317
32.2824
32.6356
32.9889
33.3398
33.6855
34.0229
34.3487
34.6594
34.9514
35.2206
35.4629
35.6734
35.8471
35.9783
36.061
36.0888
36.0551
35.9528
35.7748
35.5136
35.1616
34.7108
34.1534
33.4815
32.6873
31.7636
30.7037
29.5015
28.1521
26.6517
24.9979
23.19
21.2289
19.1178
16.8626
14.4726
11.9574
9.32774
6.59799
3.78467
0.905927
-2.01898
-4.96986
-7.92619
-10.8676
-13.7743
-16.628
-19.4122
-22.113
-24.7186
-27.2201
-29.6112
-31.8882
-34.05
-36.0985
-38.038
-39.8749
-41.6172
-43.2746
-44.8582
-46.3808
-47.858
-49.3081
-50.7169
-52.1658
-53.6348
-55.1484
-56.7314
-58.4108
-60.2164
-62.1807
-64.3432
-66.752
-69.4148
-72.3099
-76.3698
-0.00176857
0.022774
0.0232662
0.0187288
0.0154116
0.0120779
0.00930551
0.0062055
0.00349182
0.000760576
-0.00190614
28.7435
28.7532
28.7725
28.8112
28.8871
28.9939
29.1209
29.2682
29.4358
29.623
29.8294
30.0544
30.2974
30.5579
30.8354
31.1291
31.4382
31.7617
32.0987
32.4478
32.8079
33.1776
33.5552
33.939
34.3269
34.7163
35.1047
35.4892
35.8665
36.2332
36.586
36.9208
37.2337
37.52
37.7749
37.9928
38.1678
38.2933
38.3625
38.3681
38.3025
38.1577
37.9254
37.597
37.1636
36.6163
35.946
35.1437
34.2009
33.1095
31.8623
30.453
28.8769
27.1305
25.2122
23.1226
20.8643
18.4434
15.8701
13.1551
10.3104
7.35195
4.29866
1.17121
-2.00803
-5.2158
-8.4281
-11.6212
-14.7721
-17.8596
-20.8647
-23.7713
-26.5662
-29.2395
-31.7843
-34.1969
-36.477
-38.6276
-40.6541
-42.5644
-44.3681
-46.077
-47.7039
-49.2637
-50.7731
-52.2486
-53.7059
-55.1829
-56.6947
-58.2628
-59.9155
-61.6851
-63.6087
-65.7257
-68.0829
-70.7672
-73.782
-77.1036
-81.7906
0.00778403
0.027933
0.0283002
0.0222755
0.0182214
0.0143436
0.0110068
0.00748535
0.00441953
0.00135909
-0.00160211
29.994
30.0046
30.0256
30.0687
30.1514
30.2655
30.4003
30.5569
30.7352
30.9347
31.1547
31.395
31.6551
31.9344
32.2322
32.5478
32.8803
33.2287
33.5921
33.9693
34.3591
34.7603
35.1712
35.5901
36.0147
36.4427
36.8711
37.2972
37.7175
38.1288
38.5273
38.9093
39.2704
39.6058
39.9104
40.1783
40.4032
40.5782
40.6958
40.7482
40.7271
40.6236
40.4286
40.1324
39.7251
39.1965
38.5362
37.7339
36.7795
35.6635
34.377
32.9125
31.2635
29.4255
27.3958
25.174
22.7622
20.1666
17.3982
14.4694
11.3928
8.18655
4.87204
1.47308
-1.98453
-5.47349
-8.96575
-12.4335
-15.85
-19.1904
-22.433
-25.5591
-28.5538
-31.406
-34.1082
-36.6573
-39.0537
-41.3016
-43.4082
-45.3827
-47.2368
-48.9847
-50.6411
-52.2229
-53.749
-55.2383
-56.7119
-58.2023
-59.7337
-61.3305
-63.0247
-64.8521
-66.8589
-69.0939
-71.6155
-74.4656
-77.7426
-81.3901
-86.6272
0.0165838
0.0330435
0.0329742
0.0254623
0.0208181
0.0163588
0.0124881
0.008591
0.00521484
0.0018776
-0.00131962
31.2209
31.2323
31.2553
31.303
31.3928
31.5141
31.6571
31.8232
32.0125
32.2245
32.4587
32.7148
32.9925
33.2911
33.61
33.9482
34.3049
34.6792
35.0701
35.4765
35.8976
36.3318
36.7779
37.2337
37.6973
38.166
38.6372
39.1077
39.5743
40.0337
40.4821
40.9156
41.3297
41.7194
42.0794
42.4034
42.6848
42.9163
43.09
43.1973
43.2292
43.1761
43.0276
42.7733
42.4018
41.9018
41.2613
40.4685
39.5116
38.3791
37.0606
35.5465
33.8288
31.9012
29.7595
27.4021
24.8306
22.0506
19.0741
15.9157
12.5882
9.112
5.51157
1.81435
-1.94953
-5.74806
-9.54828
-13.3175
-17.0245
-20.6402
-24.1393
-27.5003
-30.7062
-33.7447
-36.6081
-39.2936
-41.803
-44.142
-46.3197
-48.3473
-50.2388
-52.011
-53.6808
-55.2672
-56.7916
-58.2754
-59.7422
-61.2223
-62.7441
-64.3407
-66.0424
-67.8872
-69.9178
-72.1935
-74.7861
-77.7773
-81.2562
-85.1627
-90.8562
0.025427
0.037999
0.0367996
0.0283292
0.0230004
0.0179943
0.0136485
0.0094438
0.0058217
0.0022815
-0.00107385
32.4228
32.435
32.4602
32.5129
32.6096
32.7382
32.8895
33.0656
33.2662
33.4909
33.7397
34.0121
34.3079
34.6265
34.9669
35.3284
35.7101
36.1112
36.5307
36.9677
37.4213
37.8903
38.3731
38.8679
39.3725
39.8843
40.4007
40.9186
41.4348
41.946
42.4485
42.938
43.41
43.8595
44.2807
44.6672
45.0122
45.3079
45.5458
45.7168
45.811
45.818
45.7264
45.5246
45.2001
44.7399
44.1305
43.3583
42.4095
41.2705
39.9288
38.3727
36.5917
34.5776
32.3243
29.8285
27.0911
24.117
20.9178
17.512
13.9118
10.1402
6.22523
2.19866
-1.90414
-6.04552
-10.1868
-14.2892
-18.3158
-22.2328
-26.0103
-29.6236
-33.0533
-36.2858
-39.3134
-42.1343
-44.7517
-47.1734
-49.4109
-51.4781
-53.3917
-55.1711
-56.8357
-58.4068
-59.9084
-61.3638
-62.7984
-64.2415
-65.7259
-67.2834
-68.9435
-70.7508
-72.7562
-75.0226
-77.6242
-80.6615
-84.2398
-88.2885
-94.2862
0.0334886
0.0423628
0.0397863
0.0305743
0.0245677
0.0190944
0.0143756
0.00996098
0.00618415
0.00253674
-0.000880572
33.5983
33.6114
33.6391
33.697
33.8004
33.9363
34.0962
34.2823
34.4944
34.7324
34.9961
35.2853
35.5997
35.9385
36.3011
36.6865
37.0939
37.5227
37.9719
38.4407
38.9284
39.4335
39.9547
40.4902
41.0378
41.595
42.1592
42.7275
43.2967
43.8635
44.4242
44.9743
45.5094
46.0241
46.5127
46.9686
47.3846
47.7525
48.0634
48.3074
48.474
48.5517
48.5284
48.3911
48.126
47.7184
47.1531
46.4144
45.4862
44.3528
42.9989
41.4099
39.5731
37.4772
35.1138
32.478
29.5687
26.3897
22.953
19.279
15.3813
11.285
7.02227
2.63004
-1.85011
-6.37382
-10.8951
-15.3682
-19.749
-23.9975
-28.0788
-31.964
-35.6311
-39.0654
-42.2595
-45.213
-47.9311
-50.4243
-52.7077
-54.7981
-56.7152
-58.4818
-60.12
-61.6535
-63.1084
-64.5105
-65.8859
-67.2618
-68.6713
-70.1437
-71.7258
-73.454
-75.3791
-77.5661
-80.0906
-83.062
-86.6035
-90.6358
-96.7003
0.0430096
0.0475002
0.0417045
0.031983
0.0252908
0.0195009
0.0145453
0.0100568
0.00624548
0.00260901
-0.000757688
34.7461
34.7601
34.7904
34.8535
34.9636
35.1067
35.2755
35.4718
35.6958
35.9473
36.2262
36.5326
36.8658
37.2254
37.6105
38.0204
38.4543
38.9116
39.3915
39.8934
40.4163
40.959
41.5202
42.098
42.6905
43.2953
43.91
44.5316
45.1572
45.7834
46.4064
47.0219
47.6251
48.2109
48.7733
49.3056
49.8003
50.2489
50.642
50.969
51.2188
51.379
51.4365
51.377
51.1852
50.8448
50.3384
49.6481
48.7554
47.6418
46.2888
44.6788
42.7955
40.6248
38.155
35.3784
32.2917
28.8967
25.2066
21.241
17.0173
12.5627
7.9135
3.11299
-1.79017
-6.74314
-11.6912
-16.5793
-21.3551
-25.9707
-30.3849
-34.5641
-38.4834
-42.1271
-45.4885
-48.5692
-51.3775
-53.9278
-56.2393
-58.3329
-60.2319
-61.9626
-63.5498
-65.0205
-66.4027
-67.7228
-69.0056
-70.28
-71.5796
-72.9426
-74.4018
-76.0006
-77.7827
-79.8137
-82.1644
-84.9453
-88.2874
-92.1196
-97.9238
0.0595789
0.053609
0.0413068
0.0321623
0.0248749
0.0190437
0.0140457
0.00966423
0.00596715
0.00247625
-0.00071948
35.8646
35.8796
35.9124
35.9809
36.0976
36.248
36.4256
36.6324
36.8685
37.1338
37.4284
37.7521
38.1046
38.4852
38.8932
39.3281
39.7891
40.2757
40.7873
41.3232
41.8825
42.4641
43.0666
43.6885
44.3277
44.9824
45.65
46.3279
47.0132
47.7025
48.3919
49.0774
49.7541
50.4168
51.0595
51.6755
52.257
52.7951
53.28
53.7007
54.0454
54.3008
54.4528
54.4857
54.3828
54.1257
53.6951
53.0706
52.2307
51.1538
49.8178
48.2013
46.2843
44.0482
41.4779
38.5617
35.2932
31.6716
27.709
23.4266
18.8452
13.9932
8.91231
3.65274
-1.72788
-7.16645
-12.5971
-17.9537
-23.1728
-28.1974
-32.9782
-37.4763
-41.6635
-45.5233
-49.0504
-52.2496
-55.1338
-57.7219
-60.0393
-62.1117
-63.9673
-65.6352
-67.1433
-68.5227
-69.7994
-71.0044
-72.1656
-73.3126
-74.4754
-75.689
-76.9797
-78.3999
-79.9759
-81.773
-83.8496
-86.3123
-89.2759
-92.7186
-97.8704
0.0742131
0.0547874
0.0378361
0.0305668
0.0229762
0.0175569
0.0127862
0.00873315
0.00532539
0.00212639
-0.000779368
36.9522
36.9682
37.0036
37.0774
37.2005
37.3582
37.5448
37.7623
38.0108
38.2902
38.6007
38.942
39.3139
39.7158
40.1471
40.6074
41.0961
41.6128
42.1568
42.7276
43.3243
43.9459
44.5911
45.2584
45.9463
46.6529
47.3759
48.1129
48.8611
49.617
50.377
51.137
51.8924
52.6379
53.3677
54.0747
54.7512
55.388
55.9749
56.5005
56.9525
57.3168
57.5781
57.7196
57.7227
57.5673
57.2317
56.6927
55.9259
54.9057
53.6061
52.0014
50.0666
47.7784
45.1164
42.0643
38.6111
34.7527
30.4978
25.8706
20.8951
15.6004
10.0342
4.25525
-1.66809
-7.66005
-13.6409
-19.5301
-25.2509
-30.7339
-35.9206
-40.7652
-45.2363
-49.3173
-53.005
-56.3092
-59.249
-61.8499
-64.1448
-66.1666
-67.9495
-69.5239
-70.9203
-72.1659
-73.3077
-74.3711
-75.385
-76.3759
-77.3692
-78.3951
-79.4843
-80.6729
-81.9832
-83.4732
-85.179
-87.2035
-89.6095
-92.4713
-96.574
0.0696691
0.0479239
0.0312606
0.027214
0.0193091
0.0150237
0.0107428
0.00727222
0.0043368
0.00157491
-0.000931994
38.0074
38.0243
38.0622
38.1413
38.2707
38.4358
38.6315
38.8599
39.121
39.4147
39.7412
40.1003
40.4917
40.915
41.3699
41.8559
42.3728
42.9201
43.4974
44.1039
44.7388
45.4013
46.0903
46.8046
47.5428
48.3033
49.0841
49.8828
50.6968
51.5228
52.3573
53.1964
54.0356
54.8698
55.6931
56.4987
57.2785
58.0233
58.7227
59.3652
59.9376
60.4254
60.8122
61.0796
61.2077
61.1743
60.9554
60.5247
59.8542
58.9144
57.6748
56.1043
54.1723
51.8493
49.1087
45.9276
42.2893
38.1853
33.6179
28.6142
23.2028
17.4128
11.2981
4.92748
-1.61743
-8.24496
-14.8581
-21.3581
-27.6506
-33.6513
-39.2892
-44.5111
-49.2819
-53.5858
-57.424
-60.8129
-63.7801
-66.3601
-68.5961
-70.531
-72.2096
-73.6574
-74.8734
-75.9657
-76.9454
-77.8411
-78.6792
-79.4848
-80.2798
-81.0892
-81.9353
-82.8512
-83.8454
-84.9656
-86.2149
-87.6977
-89.3869
-91.4657
-94.2387
0.0599841
0.0375487
0.0224967
0.0215403
0.0141544
0.0115262
0.00794907
0.00530831
0.00300024
0.000815032
-0.00117256
39.0286
39.0463
39.0866
39.1708
39.3065
39.4789
39.6839
39.9233
40.1971
40.5054
40.848
41.2249
41.6359
42.0808
42.5594
43.0715
43.6169
44.1953
44.8062
45.4489
46.1228
46.8271
47.561
48.3236
49.1137
49.9299
50.7705
51.6333
52.5158
53.4151
54.3279
55.2504
56.1784
57.107
58.0304
58.9418
59.8333
60.6957
61.5185
62.2901
62.9968
63.6235
64.1527
64.5651
64.8389
64.9501
64.8721
64.5755
64.0285
63.197
62.0456
60.5369
58.6336
56.2986
53.4973
50.1989
46.379
42.0217
37.1224
31.7078
25.8119
19.4654
12.7273
5.67823
-1.58398
-8.94806
-16.2944
-23.501
-30.4505
-37.0393
-43.1813
-48.8137
-53.8985
-58.4224
-62.393
-65.8369
-68.7929
-71.3075
-73.4363
-75.2365
-76.7824
-77.9674
-79.0333
-79.9419
-80.73
-81.4283
-82.0628
-82.6561
-83.2268
-83.7936
-84.3675
-84.9805
-85.6193
-86.3233
-87.0491
-87.9112
-88.768
-89.8976
-91.1531
0.0507295
0.0255377
0.0119949
0.0141487
0.00804086
0.00727056
0.00460921
0.00301586
0.0014171
-9.63922e-05
-0.00147405
40.014
40.0324
40.0751
40.1644
40.3063
40.4861
40.7004
40.9509
41.2375
41.5603
41.919
42.3138
42.7444
43.2109
43.7133
44.2516
44.8258
45.4355
46.0803
46.7598
47.4732
48.22
48.9997
49.8117
50.655
51.5285
52.4307
53.3597
54.3132
55.2887
56.2832
57.2932
58.3147
59.3432
60.3729
61.3974
62.4089
63.3984
64.3558
65.269
66.1243
66.9059
67.5956
68.1731
68.6151
68.8958
68.9857
68.8524
68.46
67.7697
66.74
65.3268
63.4844
61.1668
58.3297
54.9319
50.9385
46.324
41.0758
35.2127
28.7763
21.8022
14.3516
6.51886
-1.57832
-9.8036
-18.0087
-26.0404
-33.752
-41.0137
-47.7208
-53.7992
-59.2087
-63.9413
-68.0153
-71.4714
-74.3636
-76.754
-78.7109
-80.2973
-81.5161
-82.5844
-83.4308
-84.1142
-84.6755
-85.1457
-85.5495
-85.9064
-86.2306
-86.5355
-86.8189
-87.1124
-87.3716
-87.6468
-87.8109
-88.0212
-87.9777
-88.0868
-87.6532
0.042976
0.0101212