/*--------------------------------*- C++ -*----------------------------------*\
| =========                 |                                                 |
| \\      /  F ield         | OpenFOAM: The Open Source CFD Toolbox           |
|  \\    /   O peration     | Version:  v2106                                 |
|   \\  /    A nd           | Website:  www.openfoam.com                      |
|    \\/     M anipulation  |                                                 |
\*---------------------------------------------------------------------------*/
FoamFile
{
    version     2.0;
    format      ascii;
    arch        "LSB;label=32;scalar=64";
    class       surfaceScalarField;
    location    "1";
    object      phi;
}
// * * * * * * * * * * * * * * * * * * * * * * * * * * * * * * * * * * * * * //

dimensions      [0 3 -1 0 0 0 0];

oriented        oriented;

internalField   nonuniform List<scalar> 
59425
(
-6.40605e-09
-4.2506e-06
-1.2988e-08
-4.28313e-06
-1.9416e-08
-4.29075e-06
-2.56292e-08
-4.29884e-06
-3.17548e-08
-4.30937e-06
-3.7884e-08
-4.32324e-06
-4.40522e-08
-4.34102e-06
-5.02569e-08
-4.36296e-06
-5.6478e-08
-4.38903e-06
-6.26913e-08
-4.419e-06
-6.8875e-08
-4.45262e-06
-7.501e-08
-4.48965e-06
-8.10673e-08
-4.52992e-06
-8.69661e-08
-4.57341e-06
-9.25842e-08
-4.62018e-06
-9.78508e-08
-4.67019e-06
-1.02748e-07
-4.72342e-06
-1.07289e-07
-4.77982e-06
-1.11532e-07
-4.83927e-06
-1.15544e-07
-4.90167e-06
-1.19342e-07
-4.96683e-06
-1.2296e-07
-5.03462e-06
-1.26462e-07
-5.105e-06
-1.29881e-07
-5.17785e-06
-1.33222e-07
-5.25302e-06
-1.36482e-07
-5.33034e-06
-1.39653e-07
-5.40966e-06
-1.42722e-07
-5.49079e-06
-1.45675e-07
-5.57355e-06
-1.48496e-07
-5.65773e-06
-1.51167e-07
-5.74311e-06
-1.53667e-07
-5.82945e-06
-1.55978e-07
-5.91651e-06
-1.58076e-07
-6.00402e-06
-1.59938e-07
-6.09169e-06
-1.61541e-07
-6.17922e-06
-1.62859e-07
-6.2663e-06
-1.63867e-07
-6.35261e-06
-1.64538e-07
-6.43779e-06
-1.64848e-07
-6.52149e-06
-1.64772e-07
-6.60334e-06
-1.64289e-07
-6.68297e-06
-1.63386e-07
-6.76001e-06
-1.62068e-07
-6.83406e-06
-1.6033e-07
-6.90471e-06
-1.58143e-07
-6.97152e-06
-1.55495e-07
-7.03417e-06
-1.52358e-07
-7.09233e-06
-1.48711e-07
-7.14556e-06
-1.44515e-07
-7.19346e-06
-1.39726e-07
-7.23569e-06
-1.34354e-07
-7.2719e-06
-1.28426e-07
-7.30186e-06
-1.21976e-07
-7.32534e-06
-1.1505e-07
-7.3422e-06
-1.07705e-07
-7.35231e-06
-1.00009e-07
-7.3556e-06
-9.20447e-08
-7.35205e-06
-8.39015e-08
-7.34171e-06
-7.56809e-08
-7.3247e-06
-6.74996e-08
-7.30119e-06
-5.948e-08
-7.27149e-06
-5.17389e-08
-7.23593e-06
-4.43899e-08
-7.19489e-06
-3.75445e-08
-7.14883e-06
-3.12901e-08
-7.09833e-06
-2.57137e-08
-7.04406e-06
-2.08921e-08
-6.98674e-06
-1.69e-08
-6.92716e-06
-1.38317e-08
-6.86621e-06
-1.18024e-08
-6.80488e-06
-1.09501e-08
-6.74422e-06
-1.14361e-08
-6.6854e-06
-1.34124e-08
-6.62961e-06
-1.70105e-08
-6.57813e-06
-2.23187e-08
-6.53227e-06
-2.93686e-08
-6.49326e-06
-3.81333e-08
-6.46223e-06
-4.84945e-08
-6.44029e-06
-6.02289e-08
-6.42885e-06
-7.30019e-08
-6.43005e-06
-8.65308e-08
-6.44617e-06
-1.01024e-07
-6.4788e-06
-1.16808e-07
-6.52935e-06
-1.34604e-07
-6.5997e-06
-1.54811e-07
-6.69097e-06
-1.77218e-07
-6.80396e-06
-2.01695e-07
-6.9403e-06
-2.28085e-07
-7.10166e-06
-2.56121e-07
-7.28971e-06
-2.85335e-07
-7.50602e-06
-3.14914e-07
-7.75198e-06
-3.4344e-07
-8.02868e-06
-3.68601e-07
-8.33671e-06
-3.85973e-07
-8.67611e-06
-3.89373e-07
-9.05156e-06
-3.64618e-07
-9.452e-06
-2.6928e-07
-9.9524e-06
-1.33173e-07
-1.0725e-05
-4.37022e-07
-1.58957e-05
-3.5936e-07
-1.53059e-05
-4.96334e-06
-2.36846e-05
-1.36495e-05
-2.37011e-05
-1.59601e-05
-1.43904e-05
-1.86527e-05
-1.33518e-05
-1.95856e-05
-9.17195e-06
-2.02994e-05
-6.91023e-06
-1.97924e-05
-3.7224e-06
-1.90908e-05
-1.81483e-06
-6.32795e-07
-8.19963e-09
-4.2424e-06
-1.63977e-08
-4.27494e-06
-2.44582e-08
-4.28269e-06
-3.24133e-08
-4.29088e-06
-4.03286e-08
-4.30145e-06
-4.82547e-08
-4.31531e-06
-5.6202e-08
-4.33307e-06
-6.41526e-08
-4.35501e-06
-7.20763e-08
-4.3811e-06
-7.99418e-08
-4.41114e-06
-8.77209e-08
-4.44485e-06
-9.5389e-08
-4.48199e-06
-1.02874e-07
-4.52244e-06
-1.10045e-07
-4.56624e-06
-1.16797e-07
-4.61342e-06
-1.23118e-07
-4.66387e-06
-1.29082e-07
-4.71745e-06
-1.34754e-07
-4.77415e-06
-1.40189e-07
-4.83383e-06
-1.45452e-07
-4.8964e-06
-1.50577e-07
-4.9617e-06
-1.55581e-07
-5.02962e-06
-1.60487e-07
-5.10009e-06
-1.6529e-07
-5.17305e-06
-1.69967e-07
-5.24834e-06
-1.74491e-07
-5.32582e-06
-1.78829e-07
-5.40532e-06
-1.82952e-07
-5.48667e-06
-1.86825e-07
-5.56968e-06
-1.90414e-07
-5.65414e-06
-1.93686e-07
-5.73984e-06
-1.96602e-07
-5.82654e-06
-1.99127e-07
-5.91399e-06
-2.01223e-07
-6.00192e-06
-2.0285e-07
-6.09006e-06
-2.03971e-07
-6.1781e-06
-2.04546e-07
-6.26573e-06
-2.0454e-07
-6.35261e-06
-2.03916e-07
-6.43841e-06
-2.02642e-07
-6.52276e-06
-2.00688e-07
-6.6053e-06
-1.98034e-07
-6.68563e-06
-1.94671e-07
-6.76337e-06
-1.90612e-07
-6.83812e-06
-1.85878e-07
-6.90944e-06
-1.80481e-07
-6.97691e-06
-1.74449e-07
-7.0402e-06
-1.67814e-07
-7.09896e-06
-1.60562e-07
-7.15281e-06
-1.52601e-07
-7.20142e-06
-1.43863e-07
-7.24443e-06
-1.34339e-07
-7.28143e-06
-1.2407e-07
-7.31213e-06
-1.13138e-07
-7.33628e-06
-1.01635e-07
-7.35371e-06
-8.96596e-08
-7.36429e-06
-7.733e-08
-7.36793e-06
-6.47798e-08
-7.3646e-06
-5.21516e-08
-7.35434e-06
-3.95995e-08
-7.33725e-06
-2.72978e-08
-7.31349e-06
-1.54294e-08
-7.28336e-06
-4.17829e-09
-7.24718e-06
6.28846e-09
-7.20536e-06
1.58234e-08
-7.15836e-06
2.4285e-08
-7.10679e-06
3.15331e-08
-7.05131e-06
3.74332e-08
-6.99264e-06
4.1843e-08
-6.93157e-06
4.46195e-08
-6.86899e-06
4.56179e-08
-6.80587e-06
4.46851e-08
-6.74329e-06
4.16559e-08
-6.68237e-06
3.63718e-08
-6.62433e-06
2.8687e-08
-6.57045e-06
1.84666e-08
-6.52205e-06
5.60069e-09
-6.48039e-06
-9.94292e-09
-6.44669e-06
-2.80572e-08
-6.42218e-06
-4.84767e-08
-6.40843e-06
-7.08209e-08
-6.4077e-06
-9.54181e-08
-6.42158e-06
-1.23444e-07
-6.45078e-06
-1.55792e-07
-6.497e-06
-1.92759e-07
-6.56274e-06
-2.34282e-07
-6.64945e-06
-2.80024e-07
-6.75822e-06
-3.2974e-07
-6.89058e-06
-3.83179e-07
-7.04822e-06
-4.39982e-07
-7.23291e-06
-4.99574e-07
-7.44643e-06
-5.61e-07
-7.69056e-06
-6.22683e-07
-7.967e-06
-6.82055e-07
-8.27734e-06
-7.34877e-07
-8.62329e-06
-7.74462e-07
-9.01197e-06
-7.89776e-07
-9.43669e-06
-7.44713e-07
-9.99746e-06
-6.31663e-07
-1.08381e-05
-1.04564e-06
-1.54817e-05
-1.10103e-06
-1.52505e-05
-4.69901e-06
-2.00866e-05
-1.2055e-05
-1.63451e-05
-1.41772e-05
-1.22682e-05
-1.65638e-05
-1.09652e-05
-1.75689e-05
-8.16685e-06
-1.82722e-05
-6.20694e-06
-1.80532e-05
-3.9414e-06
-1.7589e-05
-2.27906e-06
-9.76122e-07
-1.08816e-08
-4.23152e-06
-2.17057e-08
-4.26411e-06
-3.23901e-08
-4.272e-06
-4.29903e-08
-4.28028e-06
-5.35637e-08
-4.29088e-06
-6.41381e-08
-4.30474e-06
-7.47087e-08
-4.3225e-06
-8.52484e-08
-4.34447e-06
-9.57206e-08
-4.37063e-06
-1.06085e-07
-4.40077e-06
-1.16304e-07
-4.43463e-06
-1.26327e-07
-4.47196e-06
-1.36042e-07
-4.51272e-06
-1.45406e-07
-4.55687e-06
-1.54509e-07
-4.60432e-06
-1.63434e-07
-4.65494e-06
-1.72223e-07
-4.70866e-06
-1.809e-07
-4.76547e-06
-1.89456e-07
-4.82528e-06
-1.97875e-07
-4.88798e-06
-2.06107e-07
-4.95347e-06
-2.14095e-07
-5.02163e-06
-2.21818e-07
-5.09237e-06
-2.29266e-07
-5.1656e-06
-2.36415e-07
-5.24119e-06
-2.4323e-07
-5.319e-06
-2.49673e-07
-5.39888e-06
-2.55698e-07
-5.48065e-06
-2.61261e-07
-5.56412e-06
-2.6631e-07
-5.64909e-06
-2.70795e-07
-5.73535e-06
-2.74663e-07
-5.82267e-06
-2.77859e-07
-5.91079e-06
-2.80326e-07
-5.99945e-06
-2.8201e-07
-6.08838e-06
-2.82852e-07
-6.17726e-06
-2.82798e-07
-6.26578e-06
-2.81794e-07
-6.35362e-06
-2.79788e-07
-6.44042e-06
-2.76732e-07
-6.52582e-06
-2.72583e-07
-6.60944e-06
-2.67307e-07
-6.6909e-06
-2.60874e-07
-6.7698e-06
-2.53264e-07
-6.84573e-06
-2.44447e-07
-6.91826e-06
-2.34393e-07
-6.98697e-06
-2.23122e-07
-7.05147e-06
-2.10726e-07
-7.11136e-06
-1.97322e-07
-7.16622e-06
-1.83043e-07
-7.2157e-06
-1.67983e-07
-7.25949e-06
-1.52106e-07
-7.29731e-06
-1.35394e-07
-7.32884e-06
-1.17906e-07
-7.35376e-06
-9.97784e-08
-7.37183e-06
-8.11489e-08
-7.38292e-06
-6.21844e-08
-7.38689e-06
-4.30805e-08
-7.3837e-06
-2.40372e-08
-7.37338e-06
-5.26515e-09
-7.35602e-06
1.30008e-08
-7.33176e-06
3.05172e-08
-7.30087e-06
4.70577e-08
-7.26372e-06
6.23971e-08
-7.2207e-06
7.62887e-08
-7.17225e-06
8.84674e-08
-7.11897e-06
9.86612e-08
-7.06151e-06
1.06614e-07
-7.00059e-06
1.12092e-07
-6.93704e-06
1.14875e-07
-6.87177e-06
1.14749e-07
-6.80575e-06
1.11513e-07
-6.74005e-06
1.04987e-07
-6.67584e-06
9.50287e-08
-6.61437e-06
8.15357e-08
-6.55695e-06
6.44101e-08
-6.50492e-06
4.35527e-08
-6.45954e-06
1.88736e-08
-6.42201e-06
-9.57664e-09
-6.39372e-06
-4.16154e-08
-6.37639e-06
-7.7829e-08
-6.37149e-06
-1.19935e-07
-6.37947e-06
-1.6851e-07
-6.4022e-06
-2.22896e-07
-6.44262e-06
-2.82875e-07
-6.50276e-06
-3.48511e-07
-6.58381e-06
-4.1967e-07
-6.68706e-06
-4.96213e-07
-6.81404e-06
-5.77969e-07
-6.96647e-06
-6.6467e-07
-7.14621e-06
-7.55857e-07
-7.35524e-06
-8.50754e-07
-7.59566e-06
-9.48098e-07
-7.86966e-06
-1.04581e-06
-8.17963e-06
-1.14069e-06
-8.5284e-06
-1.22896e-06
-8.9237e-06
-1.301e-06
-9.36465e-06
-1.34355e-06
-9.95491e-06
-1.32349e-06
-1.08581e-05
-1.75974e-06
-1.50455e-05
-2.24049e-06
-1.47697e-05
-4.72188e-06
-1.76052e-05
-9.09194e-06
-1.19751e-05
-1.15926e-05
-9.76754e-06
-1.37544e-05
-8.80343e-06
-1.50891e-05
-6.83213e-06
-1.59599e-05
-5.33612e-06
-1.62589e-05
-3.64244e-06
-1.62881e-05
-2.24987e-06
-1.04648e-06
-1.39848e-08
-4.21753e-06
-2.79417e-08
-4.25016e-06
-4.17495e-08
-4.2582e-06
-5.54629e-08
-4.26657e-06
-6.91335e-08
-4.27721e-06
-8.27816e-08
-4.29109e-06
-9.63983e-08
-4.30889e-06
-1.09955e-07
-4.33092e-06
-1.23415e-07
-4.35717e-06
-1.36736e-07
-4.38745e-06
-1.49882e-07
-4.42148e-06
-1.62788e-07
-4.45906e-06
-1.75451e-07
-4.50006e-06
-1.87945e-07
-4.54438e-06
-2.00329e-07
-4.59193e-06
-2.12581e-07
-4.64269e-06
-2.24668e-07
-4.69658e-06
-2.36589e-07
-4.75355e-06
-2.48327e-07
-4.81354e-06
-2.59848e-07
-4.87646e-06
-2.71101e-07
-4.94222e-06
-2.82025e-07
-5.01071e-06
-2.9257e-07
-5.08182e-06
-3.02697e-07
-5.15547e-06
-3.12363e-07
-5.23153e-06
-3.21518e-07
-5.30985e-06
-3.3011e-07
-5.39029e-06
-3.38082e-07
-5.47267e-06
-3.45372e-07
-5.55683e-06
-3.51917e-07
-5.64255e-06
-3.5765e-07
-5.72962e-06
-3.62501e-07
-5.81782e-06
-3.664e-07
-5.90689e-06
-3.69274e-07
-5.99658e-06
-3.7105e-07
-6.0866e-06
-3.71656e-07
-6.17665e-06
-3.71019e-07
-6.26642e-06
-3.69071e-07
-6.35557e-06
-3.65744e-07
-6.44375e-06
-3.60977e-07
-6.53059e-06
-3.54715e-07
-6.61571e-06
-3.46909e-07
-6.69871e-06
-3.37518e-07
-6.77919e-06
-3.26511e-07
-6.85673e-06
-3.13861e-07
-6.93091e-06
-2.9955e-07
-7.00128e-06
-2.83585e-07
-7.06743e-06
-2.65999e-07
-7.12895e-06
-2.46825e-07
-7.18539e-06
-2.26161e-07
-7.23636e-06
-2.04206e-07
-7.28144e-06
-1.81206e-07
-7.32031e-06
-1.57317e-07
-7.35273e-06
-1.32595e-07
-7.37849e-06
-1.07147e-07
-7.39728e-06
-8.114e-08
-7.40892e-06
-5.47988e-08
-7.41323e-06
-2.83931e-08
-7.41011e-06
-2.18307e-09
-7.39959e-06
2.35441e-08
-7.38175e-06
4.84708e-08
-7.35669e-06
7.22819e-08
-7.32468e-06
9.46912e-08
-7.28613e-06
1.15391e-07
-7.2414e-06
1.34049e-07
-7.19091e-06
1.50312e-07
-7.13523e-06
1.63822e-07
-7.07502e-06
1.74234e-07
-7.01101e-06
1.81223e-07
-6.94403e-06
1.84479e-07
-6.87502e-06
1.83717e-07
-6.80499e-06
1.78673e-07
-6.73501e-06
1.69118e-07
-6.66629e-06
1.54856e-07
-6.60011e-06
1.35724e-07
-6.53782e-06
1.11589e-07
-6.48079e-06
8.24062e-08
-6.43035e-06
4.82977e-08
-6.3879e-06
9.43391e-09
-6.35486e-06
-3.4944e-08
-6.33201e-06
-8.69235e-08
-6.31951e-06
-1.46796e-07
-6.3196e-06
-2.13616e-07
-6.33538e-06
-2.87154e-07
-6.36908e-06
-3.67721e-07
-6.42219e-06
-4.55433e-07
-6.4961e-06
-5.50282e-07
-6.59221e-06
-6.52235e-07
-6.71208e-06
-7.6124e-07
-6.85746e-06
-8.77175e-07
-7.03027e-06
-9.99783e-07
-7.23263e-06
-1.12858e-06
-7.46686e-06
-1.26276e-06
-7.73547e-06
-1.40095e-06
-8.04144e-06
-1.54121e-06
-8.38814e-06
-1.68245e-06
-8.78246e-06
-1.81677e-06
-9.23033e-06
-1.94639e-06
-9.82529e-06
-2.03669e-06
-1.07678e-05
-2.51063e-06
-1.45716e-05
-3.03536e-06
-1.4245e-05
-5.07031e-06
-1.55702e-05
-8.19166e-06
-8.85372e-06
-1.04527e-05
-7.50648e-06
-1.22342e-05
-7.02198e-06
-1.34845e-05
-5.58184e-06
-1.43182e-05
-4.50236e-06
-1.47466e-05
-3.21401e-06
-1.49019e-05
-2.09464e-06
-1.02744e-06
-1.72498e-08
-4.20028e-06
-3.45381e-08
-4.23287e-06
-5.17034e-08
-4.24103e-06
-6.87722e-08
-4.2495e-06
-8.57778e-08
-4.26021e-06
-1.02732e-07
-4.27414e-06
-1.19624e-07
-4.292e-06
-1.36429e-07
-4.31411e-06
-1.53115e-07
-4.34049e-06
-1.69648e-07
-4.37092e-06
-1.85979e-07
-4.40515e-06
-2.02082e-07
-4.44295e-06
-2.18029e-07
-4.48411e-06
-2.33847e-07
-4.52856e-06
-2.49519e-07
-4.57626e-06
-2.65021e-07
-4.62719e-06
-2.80313e-07
-4.68128e-06
-2.95366e-07
-4.7385e-06
-3.10145e-07
-4.79876e-06
-3.24605e-07
-4.862e-06
-3.38694e-07
-4.92813e-06
-3.52351e-07
-4.99705e-06
-3.65518e-07
-5.06866e-06
-3.78137e-07
-5.14285e-06
-3.9015e-07
-5.21951e-06
-4.01495e-07
-5.2985e-06
-4.12102e-07
-5.37968e-06
-4.21901e-07
-5.46287e-06
-4.30815e-07
-5.54791e-06
-4.38763e-07
-5.6346e-06
-4.45663e-07
-5.72272e-06
-4.51429e-07
-5.81205e-06
-4.55972e-07
-5.90235e-06
-4.59202e-07
-5.99335e-06
-4.61029e-07
-6.08477e-06
-4.61364e-07
-6.17632e-06
-4.60116e-07
-6.26767e-06
-4.57201e-07
-6.35848e-06
-4.52536e-07
-6.44841e-06
-4.46044e-07
-6.53708e-06
-4.37658e-07
-6.62409e-06
-4.27315e-07
-6.70905e-06
-4.14968e-07
-6.79154e-06
-4.00578e-07
-6.87112e-06
-3.8412e-07
-6.94736e-06
-3.65585e-07
-7.01981e-06
-3.44986e-07
-7.08803e-06
-3.2236e-07
-7.15157e-06
-2.97764e-07
-7.20999e-06
-2.71282e-07
-7.26284e-06
-2.43021e-07
-7.30971e-06
-2.13178e-07
-7.35015e-06
-1.82078e-07
-7.38383e-06
-1.50041e-07
-7.41052e-06
-1.17206e-07
-7.43012e-06
-8.37467e-08
-7.44238e-06
-4.99407e-08
-7.44704e-06
-1.61012e-08
-7.44395e-06
1.74207e-08
-7.43311e-06
5.02492e-08
-7.41458e-06
8.20321e-08
-7.38847e-06
1.12429e-07
-7.35508e-06
1.41051e-07
-7.31475e-06
1.67465e-07
-7.26781e-06
1.91243e-07
-7.21469e-06
2.11949e-07
-7.15594e-06
2.29139e-07
-7.09221e-06
2.42386e-07
-7.02425e-06
2.51276e-07
-6.95292e-06
2.55415e-07
-6.87916e-06
2.54441e-07
-6.80401e-06
2.48021e-07
-6.72859e-06
2.35866e-07
-6.65413e-06
2.17728e-07
-6.58197e-06
1.93407e-07
-6.5135e-06
1.62775e-07
-6.45016e-06
1.2583e-07
-6.39341e-06
8.26267e-08
-6.3447e-06
3.26661e-08
-6.3049e-06
-2.53999e-08
-6.27395e-06
-9.23346e-08
-6.25258e-06
-1.67558e-07
-6.24437e-06
-2.50854e-07
-6.25209e-06
-3.4255e-07
-6.27738e-06
-4.42935e-07
-6.32181e-06
-5.52172e-07
-6.38686e-06
-6.70359e-07
-6.47402e-06
-7.97584e-07
-6.58486e-06
-9.3393e-07
-6.72112e-06
-1.07945e-06
-6.88475e-06
-1.2341e-06
-7.07797e-06
-1.39773e-06
-7.30323e-06
-1.56998e-06
-7.56323e-06
-1.75019e-06
-7.86122e-06
-1.93755e-06
-8.20079e-06
-2.13255e-06
-8.58746e-06
-2.32963e-06
-9.03325e-06
-2.53894e-06
-9.61598e-06
-2.71811e-06
-1.05886e-05
-3.22962e-06
-1.406e-05
-3.82343e-06
-1.36512e-05
-5.49479e-06
-1.38989e-05
-7.56008e-06
-6.78841e-06
-9.52813e-06
-5.53843e-06
-1.10394e-05
-5.51068e-06
-1.21939e-05
-4.42738e-06
-1.2997e-05
-3.69921e-06
-1.34971e-05
-2.71392e-06
-1.37556e-05
-1.83615e-06
-9.34807e-07
-2.0614e-08
-4.17967e-06
-4.13266e-08
-4.21216e-06
-6.19477e-08
-4.22041e-06
-8.24785e-08
-4.22897e-06
-1.02932e-07
-4.23975e-06
-1.2331e-07
-4.25376e-06
-1.43599e-07
-4.27171e-06
-1.63774e-07
-4.29394e-06
-1.83807e-07
-4.32045e-06
-2.03645e-07
-4.35108e-06
-2.23232e-07
-4.38556e-06
-2.42635e-07
-4.42355e-06
-2.61889e-07
-4.46486e-06
-2.80979e-07
-4.50947e-06
-2.99878e-07
-4.55736e-06
-3.18556e-07
-4.60851e-06
-3.36969e-07
-4.66287e-06
-3.55076e-07
-4.72039e-06
-3.72829e-07
-4.78101e-06
-3.90177e-07
-4.84465e-06
-4.0706e-07
-4.91125e-06
-4.23411e-07
-4.9807e-06
-4.39162e-07
-5.05291e-06
-4.54244e-07
-5.12777e-06
-4.68584e-07
-5.20517e-06
-4.82104e-07
-5.28498e-06
-4.94723e-07
-5.36706e-06
-5.06353e-07
-5.45124e-06
-5.16901e-07
-5.53736e-06
-5.26273e-07
-5.62523e-06
-5.34367e-07
-5.71463e-06
-5.41079e-07
-5.80534e-06
-5.46303e-07
-5.89713e-06
-5.49932e-07
-5.98972e-06
-5.51855e-07
-6.08285e-06
-5.51963e-07
-6.17621e-06
-5.50151e-07
-6.26948e-06
-5.46313e-07
-6.36232e-06
-5.4035e-07
-6.45437e-06
-5.3217e-07
-6.54526e-06
-5.21688e-07
-6.63457e-06
-5.08832e-07
-6.72191e-06
-4.9354e-07
-6.80683e-06
-4.75768e-07
-6.88889e-06
-4.55488e-07
-6.96764e-06
-4.32695e-07
-7.04261e-06
-4.07407e-07
-7.11332e-06
-3.79671e-07
-7.17931e-06
-3.49563e-07
-7.2401e-06
-3.1719e-07
-7.29522e-06
-2.82686e-07
-7.34421e-06
-2.46206e-07
-7.38663e-06
-2.07975e-07
-7.42206e-06
-1.68331e-07
-7.45017e-06
-1.27701e-07
-7.47075e-06
-8.65208e-08
-7.48356e-06
-4.51067e-08
-7.48845e-06
-3.7033e-09
-7.48535e-06
3.72866e-08
-7.4741e-06
7.74808e-08
-7.45477e-06
1.16456e-07
-7.42744e-06
1.53774e-07
-7.3924e-06
1.88922e-07
-7.3499e-06
2.21372e-07
-7.30026e-06
2.5061e-07
-7.24393e-06
2.76107e-07
-7.18144e-06
2.97337e-07
-7.11344e-06
3.13781e-07
-7.0407e-06
3.24942e-07
-6.96408e-06
3.30343e-07
-6.88457e-06
3.29546e-07
-6.80322e-06
3.22154e-07
-6.7212e-06
3.07817e-07
-6.63979e-06
2.86238e-07
-6.56039e-06
2.57186e-07
-6.48445e-06
2.20509e-07
-6.41348e-06
1.76092e-07
-6.34899e-06
1.23609e-07
-6.29221e-06
6.22033e-08
-6.24349e-06
-8.93273e-09
-6.20281e-06
-8.95118e-08
-6.172e-06
-1.79437e-07
-6.15445e-06
-2.79073e-07
-6.15245e-06
-3.88752e-07
-6.1677e-06
-5.08759e-07
-6.2018e-06
-6.39348e-07
-6.25627e-06
-7.80755e-07
-6.33261e-06
-9.33214e-07
-6.4324e-06
-1.09696e-06
-6.55737e-06
-1.27224e-06
-6.70948e-06
-1.45925e-06
-6.89097e-06
-1.65814e-06
-7.10434e-06
-1.86895e-06
-7.35241e-06
-2.09162e-06
-7.63856e-06
-2.32613e-06
-7.96628e-06
-2.57345e-06
-8.34014e-06
-2.83006e-06
-8.77664e-06
-3.10681e-06
-9.33924e-06
-3.36328e-06
-1.03322e-05
-3.9204e-06
-1.35029e-05
-4.546e-06
-1.30256e-05
-5.8869e-06
-1.2558e-05
-7.48078e-06
-5.19452e-06
-9.03746e-06
-3.98175e-06
-1.0277e-05
-4.27117e-06
-1.1268e-05
-3.43632e-06
-1.19913e-05
-2.97595e-06
-1.2478e-05
-2.2272e-06
-1.2759e-05
-1.55512e-06
-8.15498e-07
-2.40424e-08
-4.15563e-06
-4.82318e-08
-4.18797e-06
-7.23551e-08
-4.19629e-06
-9.63964e-08
-4.20493e-06
-1.20354e-07
-4.2158e-06
-1.44217e-07
-4.2299e-06
-1.67967e-07
-4.24796e-06
-1.91572e-07
-4.27033e-06
-2.14975e-07
-4.29705e-06
-2.38097e-07
-4.32796e-06
-2.60978e-07
-4.36268e-06
-2.83703e-07
-4.40082e-06
-3.06258e-07
-4.4423e-06
-3.28614e-07
-4.48711e-06
-3.50737e-07
-4.53524e-06
-3.7259e-07
-4.58666e-06
-3.94126e-07
-4.64133e-06
-4.15294e-07
-4.69922e-06
-4.3604e-07
-4.76026e-06
-4.56302e-07
-4.82439e-06
-4.76012e-07
-4.89154e-06
-4.95098e-07
-4.96161e-06
-5.13481e-07
-5.03452e-06
-5.31079e-07
-5.11017e-06
-5.47806e-07
-5.18845e-06
-5.63569e-07
-5.26922e-06
-5.78273e-07
-5.35236e-06
-5.91813e-07
-5.4377e-06
-6.04083e-07
-5.52509e-06
-6.14968e-07
-5.61434e-06
-6.24351e-07
-5.70524e-06
-6.32109e-07
-5.79758e-06
-6.38117e-07
-5.89112e-06
-6.42248e-07
-5.98559e-06
-6.44371e-07
-6.08073e-06
-6.44358e-07
-6.17622e-06
-6.42082e-07
-6.27176e-06
-6.3742e-07
-6.36698e-06
-6.30252e-07
-6.46154e-06
-6.20467e-07
-6.55504e-06
-6.07966e-07
-6.64708e-06
-5.92658e-07
-6.73722e-06
-5.74472e-07
-6.82502e-06
-5.53352e-07
-6.91001e-06
-5.29266e-07
-6.99173e-06
-5.02205e-07
-7.06967e-06
-4.72193e-07
-7.14333e-06
-4.39282e-07
-7.21222e-06
-4.03561e-07
-7.27582e-06
-3.65157e-07
-7.33362e-06
-3.24233e-07
-7.38514e-06
-2.80987e-07
-7.42988e-06
-2.35651e-07
-7.4674e-06
-1.88517e-07
-7.4973e-06
-1.4e-07
-7.51926e-06
-9.05639e-08
-7.533e-06
-4.06921e-08
-7.53832e-06
9.12055e-09
-7.53516e-06
5.83858e-08
-7.52337e-06
1.06585e-07
-7.50297e-06
1.53276e-07
-7.47413e-06
1.97936e-07
-7.43706e-06
2.39972e-07
-7.39194e-06
2.78815e-07
-7.3391e-06
3.13875e-07
-7.27899e-06
3.44542e-07
-7.2121e-06
3.702e-07
-7.1391e-06
3.9024e-07
-7.06074e-06
4.04073e-07
-6.97792e-06
4.11142e-07
-6.89164e-06
4.1093e-07
-6.803e-06
4.02975e-07
-6.71324e-06
3.86862e-07
-6.62368e-06
3.62238e-07
-6.53577e-06
3.28811e-07
-6.45102e-06
2.86336e-07
-6.371e-06
2.34488e-07
-6.29714e-06
1.72693e-07
-6.23042e-06
1.00259e-07
-6.17106e-06
1.70475e-08
-6.1196e-06
-7.67071e-08
-6.07824e-06
-1.8128e-07
-6.04988e-06
-2.97104e-07
-6.03662e-06
-4.24535e-07
-6.04027e-06
-5.63925e-07
-6.06241e-06
-7.15643e-07
-6.10455e-06
-8.80066e-07
-6.16819e-06
-1.05758e-06
-6.25489e-06
-1.24858e-06
-6.36637e-06
-1.45349e-06
-6.50456e-06
-1.67278e-06
-6.67168e-06
-1.90687e-06
-6.87024e-06
-2.15615e-06
-7.10313e-06
-2.42095e-06
-7.37375e-06
-2.70183e-06
-7.68541e-06
-2.99971e-06
-8.04225e-06
-3.31267e-06
-8.46368e-06
-3.6488e-06
-9.00311e-06
-3.97589e-06
-1.00051e-05
-4.57987e-06
-1.28989e-05
-5.24514e-06
-1.23603e-05
-6.33621e-06
-1.14669e-05
-7.54871e-06
-3.98202e-06
-8.75704e-06
-2.77341e-06
-9.77061e-06
-3.25759e-06
-1.05954e-05
-2.61153e-06
-1.12282e-05
-2.34312e-06
-1.16737e-05
-1.78175e-06
-1.19491e-05
-1.27972e-06
-6.89488e-07
-2.75145e-08
-4.12811e-06
-5.52158e-08
-4.16027e-06
-8.28693e-08
-4.16864e-06
-1.10449e-07
-4.17735e-06
-1.37943e-07
-4.1883e-06
-1.65331e-07
-4.20251e-06
-1.92577e-07
-4.22071e-06
-2.19612e-07
-4.2433e-06
-2.46313e-07
-4.27035e-06
-2.72702e-07
-4.30157e-06
-2.98936e-07
-4.33645e-06
-3.25021e-07
-4.37474e-06
-3.50913e-07
-4.41641e-06
-3.76571e-07
-4.46145e-06
-4.01957e-07
-4.50985e-06
-4.27027e-07
-4.56159e-06
-4.5173e-07
-4.61663e-06
-4.7601e-07
-4.67494e-06
-4.99802e-07
-4.73647e-06
-5.23039e-07
-4.80116e-06
-5.45645e-07
-4.86893e-06
-5.67537e-07
-4.93972e-06
-5.88629e-07
-5.01343e-06
-6.08825e-07
-5.08998e-06
-6.28027e-07
-5.16924e-06
-6.46128e-07
-5.25112e-06
-6.63017e-07
-5.33547e-06
-6.78576e-07
-5.42215e-06
-6.92679e-07
-5.51099e-06
-7.05196e-07
-5.60182e-06
-7.1599e-07
-5.69445e-06
-7.24921e-07
-5.78865e-06
-7.31841e-07
-5.8842e-06
-7.36604e-07
-5.98083e-06
-7.39058e-07
-6.07827e-06
-7.39054e-07
-6.17623e-06
-7.36442e-07
-6.27437e-06
-7.31077e-07
-6.37235e-06
-7.2282e-07
-6.4698e-06
-7.11538e-07
-6.56632e-06
-6.97112e-07
-6.6615e-06
-6.79435e-07
-6.75489e-06
-6.58419e-07
-6.84603e-06
-6.33996e-07
-6.93443e-06
-6.06124e-07
-7.0196e-06
-5.74791e-07
-7.101e-06
-5.40015e-07
-7.17811e-06
-5.01855e-07
-7.25038e-06
-4.60409e-07
-7.31726e-06
-4.15816e-07
-7.37822e-06
-3.68262e-07
-7.43269e-06
-3.17976e-07
-7.48016e-06
-2.65238e-07
-7.52014e-06
-2.10381e-07
-7.55216e-06
-1.53804e-07
-7.57584e-06
-9.59539e-08
-7.59085e-06
-3.73486e-08
-7.59693e-06
2.1401e-08
-7.59391e-06
7.97217e-08
-7.58169e-06
1.3694e-07
-7.56019e-06
1.92365e-07
-7.52956e-06
2.4526e-07
-7.48995e-06
2.94925e-07
-7.4416e-06
3.40768e-07
-7.38494e-06
3.82156e-07
-7.32037e-06
4.18446e-07
-7.24839e-06
4.48972e-07
-7.16962e-06
4.73051e-07
-7.08482e-06
4.90003e-07
-6.99487e-06
4.99182e-07
-6.90081e-06
4.99991e-07
-6.80381e-06
4.91892e-07
-6.70514e-06
4.74402e-07
-6.60619e-06
4.47095e-07
-6.50846e-06
4.09592e-07
-6.41352e-06
3.6152e-07
-6.32293e-06
3.02401e-07
-6.23802e-06
2.31631e-07
-6.15965e-06
1.48827e-07
-6.08825e-06
5.40553e-08
-6.02483e-06
-5.26211e-08
-5.97157e-06
-1.71601e-07
-5.9309e-06
-3.0331e-07
-5.90492e-06
-4.48175e-07
-5.8954e-06
-6.06643e-07
-5.90394e-06
-7.79189e-07
-5.932e-06
-9.66314e-07
-5.98107e-06
-1.16854e-06
-6.05266e-06
-1.38643e-06
-6.14848e-06
-1.62062e-06
-6.27037e-06
-1.8718e-06
-6.4205e-06
-2.14065e-06
-6.60139e-06
-2.42781e-06
-6.81597e-06
-2.73397e-06
-7.0676e-06
-3.06005e-06
-7.35932e-06
-3.40684e-06
-7.69546e-06
-3.77352e-06
-8.09701e-06
-4.16423e-06
-8.6124e-06
-4.55755e-06
-9.61175e-06
-5.20602e-06
-1.22505e-05
-5.9047e-06
-1.16616e-05
-6.80281e-06
-1.05688e-05
-7.7417e-06
-3.04312e-06
-8.64002e-06
-1.87509e-06
-9.46101e-06
-2.4366e-06
-1.01236e-05
-1.94891e-06
-1.06584e-05
-1.80837e-06
-1.10436e-05
-1.39656e-06
-1.12937e-05
-1.02958e-06
-5.69117e-07
-3.10185e-08
-4.09709e-06
-6.22584e-08
-4.12903e-06
-9.34644e-08
-4.13743e-06
-1.24606e-07
-4.14621e-06
-1.55664e-07
-4.15725e-06
-1.86605e-07
-4.17157e-06
-2.17342e-07
-4.18998e-06
-2.47688e-07
-4.21295e-06
-2.77632e-07
-4.24041e-06
-3.07398e-07
-4.2718e-06
-3.37061e-07
-4.30678e-06
-3.66556e-07
-4.34524e-06
-3.9583e-07
-4.38714e-06
-4.24841e-07
-4.43244e-06
-4.53544e-07
-4.48115e-06
-4.8189e-07
-4.53324e-06
-5.09821e-07
-4.5887e-06
-5.37276e-07
-4.64749e-06
-5.64185e-07
-4.70956e-06
-5.90472e-07
-4.77487e-06
-6.16053e-07
-4.84335e-06
-6.40838e-07
-4.91493e-06
-6.64728e-07
-4.98954e-06
-6.8762e-07
-5.06708e-06
-7.094e-07
-5.14746e-06
-7.2995e-07
-5.23057e-06
-7.49142e-07
-5.31628e-06
-7.66842e-07
-5.40445e-06
-7.82908e-07
-5.49492e-06
-7.97192e-07
-5.58754e-06
-8.09538e-07
-5.6821e-06
-8.19785e-07
-5.7784e-06
-8.27767e-07
-5.87622e-06
-8.33312e-07
-5.97528e-06
-8.36248e-07
-6.07534e-06
-8.36403e-07
-6.17607e-06
-8.33602e-07
-6.27717e-06
-8.27677e-07
-6.37827e-06
-8.18465e-07
-6.47901e-06
-8.0581e-07
-6.57898e-06
-7.89571e-07
-6.67774e-06
-7.69619e-07
-6.77484e-06
-7.45847e-07
-6.8698e-06
-7.18172e-07
-6.96211e-06
-6.86537e-07
-7.05123e-06
-6.5092e-07
-7.13662e-06
-6.11334e-07
-7.21769e-06
-5.67836e-07
-7.29388e-06
-5.20528e-07
-7.36457e-06
-4.69559e-07
-7.42919e-06
-4.15133e-07
-7.48712e-06
-3.57504e-07
-7.53779e-06
-2.96985e-07
-7.58066e-06
-2.33951e-07
-7.61519e-06
-1.6884e-07
-7.64095e-06
-1.02153e-07
-7.65753e-06
-3.44566e-08
-7.66462e-06
3.36155e-08
-7.66198e-06
1.0136e-07
-7.64943e-06
1.68071e-07
-7.6269e-06
2.32919e-07
-7.59441e-06
2.95023e-07
-7.55205e-06
3.53508e-07
-7.50009e-06
4.0747e-07
-7.43891e-06
4.56111e-07
-7.36902e-06
4.98754e-07
-7.29104e-06
5.34739e-07
-7.20561e-06
5.6337e-07
-7.11345e-06
5.83928e-07
-7.01543e-06
5.95687e-07
-6.91257e-06
5.97969e-07
-6.80609e-06
5.90154e-07
-6.69733e-06
5.71681e-07
-6.58772e-06
5.42044e-07
-6.47882e-06
5.00769e-07
-6.37225e-06
4.47372e-07
-6.26953e-06
3.81315e-07
-6.17197e-06
3.02086e-07
-6.08042e-06
2.09456e-07
-5.99562e-06
1.03534e-07
-5.91891e-06
-1.57413e-08
-5.85229e-06
-1.48799e-07
-5.79784e-06
-2.96046e-07
-5.75767e-06
-4.57996e-07
-5.73345e-06
-6.35181e-07
-5.72675e-06
-8.28167e-07
-5.73902e-06
-1.03756e-06
-5.77168e-06
-1.264e-06
-5.82622e-06
-1.50823e-06
-5.90425e-06
-1.77107e-06
-6.00753e-06
-2.05346e-06
-6.13812e-06
-2.35627e-06
-6.29857e-06
-2.6804e-06
-6.49184e-06
-3.02685e-06
-6.72114e-06
-3.3969e-06
-6.98927e-06
-3.79118e-06
-7.30118e-06
-4.20959e-06
-7.6786e-06
-4.65262e-06
-8.16936e-06
-5.1099e-06
-9.15447e-06
-5.80084e-06
-1.15595e-05
-6.51147e-06
-1.0951e-05
-7.25437e-06
-9.82585e-06
-7.99141e-06
-2.30608e-06
-8.63049e-06
-1.23601e-06
-9.2869e-06
-1.78019e-06
-9.8032e-06
-1.4326e-06
-1.02415e-05
-1.37008e-06
-1.0562e-05
-1.07608e-06
-1.07789e-05
-8.12689e-07
-4.60636e-07
-3.45469e-08
-4.06255e-06
-6.93473e-08
-4.09423e-06
-1.04126e-07
-4.10265e-06
-1.38849e-07
-4.11149e-06
-1.73497e-07
-4.1226e-06
-2.08e-07
-4.13707e-06
-2.42096e-07
-4.15588e-06
-2.75664e-07
-4.17938e-06
-3.08999e-07
-4.20707e-06
-3.4226e-07
-4.23854e-06
-3.75396e-07
-4.27365e-06
-4.08343e-07
-4.31229e-06
-4.4105e-07
-4.35443e-06
-4.73468e-07
-4.40002e-06
-5.05544e-07
-4.44907e-06
-5.37226e-07
-4.50156e-06
-5.68451e-07
-4.55747e-06
-5.99153e-07
-4.61678e-06
-6.29254e-07
-4.67946e-06
-6.58674e-07
-4.74545e-06
-6.8732e-07
-4.8147e-06
-7.15093e-07
-4.88716e-06
-7.41886e-07
-4.96275e-06
-7.67583e-07
-5.04139e-06
-7.92058e-07
-5.12299e-06
-8.1518e-07
-5.20745e-06
-8.36807e-07
-5.29465e-06
-8.56788e-07
-5.38446e-06
-8.74965e-07
-5.47675e-06
-8.9117e-07
-5.57133e-06
-9.05228e-07
-5.66804e-06
-9.16957e-07
-5.76668e-06
-9.26168e-07
-5.867e-06
-9.32669e-07
-5.96878e-06
-9.36261e-07
-6.07174e-06
-9.36747e-07
-6.17559e-06
-9.33927e-07
-6.27999e-06
-9.27607e-07
-6.38459e-06
-9.17596e-07
-6.48902e-06
-9.03714e-07
-6.59286e-06
-8.85791e-07
-6.69566e-06
-8.63676e-07
-6.79696e-06
-8.37237e-07
-6.89624e-06
-8.06371e-07
-6.99297e-06
-7.71002e-07
-7.0866e-06
-7.31093e-07
-7.17652e-06
-6.86646e-07
-7.26214e-06
-6.37712e-07
-7.34281e-06
-5.84391e-07
-7.4179e-06
-5.2684e-07
-7.48674e-06
-4.65272e-07
-7.54869e-06
-3.99968e-07
-7.6031e-06
-3.31269e-07
-7.64935e-06
-2.59589e-07
-7.68687e-06
-1.85416e-07
-7.71512e-06
-1.0931e-07
-7.73364e-06
-3.19096e-08
-7.74202e-06
4.60763e-08
-7.73997e-06
1.23847e-07
-7.7272e-06
2.00591e-07
-7.70364e-06
2.75407e-07
-7.66922e-06
3.47366e-07
-7.62401e-06
4.15466e-07
-7.56819e-06
4.78638e-07
-7.50208e-06
5.35808e-07
-7.42619e-06
5.85997e-07
-7.34122e-06
6.28403e-07
-7.24801e-06
6.6233e-07
-7.14737e-06
6.87087e-07
-7.04019e-06
7.01946e-07
-6.92743e-06
7.06174e-07
-6.81032e-06
6.99077e-07
-6.69023e-06
6.80017e-07
-6.56866e-06
6.48405e-07
-6.44721e-06
6.03688e-07
-6.32753e-06
5.45313e-07
-6.21116e-06
4.7274e-07
-6.0994e-06
3.85552e-07
-5.99323e-06
2.836e-07
-5.89367e-06
1.66919e-07
-5.80223e-06
3.53617e-08
-5.72073e-06
-1.11376e-07
-5.6511e-06
-2.73805e-07
-5.59524e-06
-4.52463e-07
-5.5548e-06
-6.47941e-07
-5.53128e-06
-8.60872e-07
-5.52609e-06
-1.09194e-06
-5.5406e-06
-1.34193e-06
-5.57623e-06
-1.61173e-06
-5.63445e-06
-1.90237e-06
-5.71688e-06
-2.21498e-06
-5.82551e-06
-2.55066e-06
-5.96289e-06
-2.91058e-06
-6.13193e-06
-3.29613e-06
-6.33559e-06
-3.70885e-06
-6.57655e-06
-4.14937e-06
-6.86066e-06
-4.61808e-06
-7.2099e-06
-5.11292e-06
-7.67451e-06
-5.63375e-06
-8.63365e-06
-6.36636e-06
-1.08269e-05
-7.05205e-06
-1.02653e-05
-7.66897e-06
-9.20893e-06
-8.25969e-06
-1.71536e-06
-8.69335e-06
-8.0235e-07
-9.20755e-06
-1.26599e-06
-9.59609e-06
-1.04406e-06
-9.94198e-06
-1.0242e-06
-1.0198e-05
-8.20045e-07
-1.03786e-05
-6.32115e-07
-3.66546e-07
-3.80939e-08
-4.02445e-06
-7.64724e-08
-4.05585e-06
-1.1484e-07
-4.06429e-06
-1.53164e-07
-4.07316e-06
-1.91414e-07
-4.08435e-06
-2.29389e-07
-4.09909e-06
-2.66714e-07
-4.11855e-06
-3.03675e-07
-4.14242e-06
-3.40552e-07
-4.17019e-06
-3.77345e-07
-4.20175e-06
-4.13992e-07
-4.237e-06
-4.50435e-07
-4.27585e-06
-4.86621e-07
-4.31824e-06
-5.22496e-07
-4.36415e-06
-5.58003e-07
-4.41356e-06
-5.93084e-07
-4.46648e-06
-6.27673e-07
-4.52288e-06
-6.61696e-07
-4.58276e-06
-6.95074e-07
-4.64608e-06
-7.27716e-07
-4.7128e-06
-7.59524e-07
-4.78289e-06
-7.90391e-07
-4.85629e-06
-8.20199e-07
-4.93294e-06
-8.48823e-07
-5.01276e-06
-8.76124e-07
-5.09569e-06
-9.01958e-07
-5.18161e-06
-9.26168e-07
-5.27044e-06
-9.48587e-07
-5.36204e-06
-9.69039e-07
-5.45629e-06
-9.87339e-07
-5.55304e-06
-1.00329e-06
-5.65209e-06
-1.01669e-06
-5.75328e-06
-1.02732e-06
-5.85637e-06
-1.03497e-06
-5.96113e-06
-1.03942e-06
-6.0673e-06
-1.04044e-06
-6.17457e-06
-1.03779e-06
-6.28263e-06
-1.03127e-06
-6.39112e-06
-1.02064e-06
-6.49965e-06
-1.0057e-06
-6.6078e-06
-9.8625e-07
-6.71511e-06