/*--------------------------------*- C++ -*----------------------------------*\
| =========                 |                                                 |
| \\      /  F ield         | OpenFOAM: The Open Source CFD Toolbox           |
|  \\    /   O peration     | Version:  v2106                                 |
|   \\  /    A nd           | Website:  www.openfoam.com                      |
|    \\/     M anipulation  |                                                 |
\*---------------------------------------------------------------------------*/
FoamFile
{
    version     2.0;
    format      ascii;
    arch        "LSB;label=32;scalar=64";
    class       volVectorField;
    location    "1";
    object      U;
}
// * * * * * * * * * * * * * * * * * * * * * * * * * * * * * * * * * * * * * //

dimensions      [0 1 -1 0 0 0 0];

internalField   nonuniform List<vector> 
29678
(
(-0.035475 9.23474e-24 -2.6191e-05)
(-0.0357475 8.1493e-23 -8.02765e-05)
(-0.0358097 5.31356e-22 -0.000135445)
(-0.0358753 4.93033e-20 -0.000187908)
(-0.0359622 1.92924e-19 -0.000239147)
(-0.0360778 2.27927e-19 -0.000290111)
(-0.0362263 2.00262e-19 -0.000341331)
(-0.0364095 2.29091e-19 -0.000392908)
(-0.0366268 -3.49185e-19 -0.000444723)
(-0.0368765 1.62665e-19 -0.000496576)
(-0.0371565 -3.74134e-19 -0.000548266)
(-0.0374646 1.40051e-19 -0.000599625)
(-0.0377996 -3.04148e-19 -0.000650498)
(-0.0381606 1.48209e-19 -0.000700509)
(-0.038548 -4.12806e-19 -0.000748845)
(-0.0389619 1.61124e-19 -0.000794498)
(-0.0394025 -3.72648e-19 -0.000836581)
(-0.0398695 -3.91052e-19 -0.000875797)
(-0.0403625 1.9512e-19 -0.0009123)
(-0.0408805 -3.68939e-19 -0.000946622)
(-0.0414218 -4.43976e-19 -0.000978962)
(-0.0419852 -4.21556e-19 -0.00100979)
(-0.0425707 -2.47547e-20 -0.00103946)
(-0.0431771 -1.16238e-19 -0.00106826)
(-0.0438029 -1.83479e-19 -0.00109641)
(-0.0444466 -1.09766e-19 -0.00112392)
(-0.0451068 -9.58892e-20 -0.00115074)
(-0.0457821 2.51231e-19 -0.00117676)
(-0.0464708 -3.74617e-19 -0.00120188)
(-0.0471712 -4.88693e-19 -0.00122598)
(-0.0478814 -4.67992e-19 -0.00124889)
(-0.0485995 -2.60036e-20 -0.00127048)
(-0.0493235 -1.12701e-19 -0.00129057)
(-0.0500509 1.5703e-19 -0.00130898)
(-0.0507795 2.90094e-19 -0.00132553)
(-0.0515068 2.16562e-19 -0.00134002)
(-0.0522302 2.89372e-19 -0.00135225)
(-0.0529468 2.28934e-19 -0.00136199)
(-0.0536538 2.04586e-19 -0.00136904)
(-0.0543483 2.95368e-19 -0.00137319)
(-0.0550272 2.26656e-19 -0.00137421)
(-0.0556874 3.24759e-19 -0.00137193)
(-0.0563259 2.31659e-19 -0.0013662)
(-0.0569396 3.14306e-19 -0.00135697)
(-0.0575248 2.09062e-19 -0.00134416)
(-0.0580778 -3.20184e-19 -0.00132775)
(-0.0585961 3.02237e-19 -0.00130768)
(-0.0590767 2.85006e-19 -0.00128363)
(-0.0595161 3.4686e-19 -0.00125575)
(-0.0599107 3.3748e-19 -0.0012231)
(-0.0602577 3.11166e-19 -0.00118559)
(-0.0605547 3.53962e-19 -0.00114321)
(-0.0607997 3.68475e-19 -0.00109607)
(-0.0609911 3.16331e-19 -0.00104441)
(-0.0611276 2.33769e-20 -0.000988575)
(-0.0612084 3.33158e-19 -0.000928984)
(-0.0612329 3.18659e-19 -0.000866165)
(-0.0612011 3.38563e-19 -0.000800744)
(-0.0611135 3.27963e-19 -0.00073344)
(-0.060971 3.52962e-19 -0.000665053)
(-0.0607755 3.43007e-19 -0.000596495)
(-0.0605292 3.31997e-19 -0.000528657)
(-0.0602352 3.13898e-19 -0.000462598)
(-0.0598964 3.08281e-19 -0.0003996)
(-0.0595167 3.28238e-19 -0.000340313)
(-0.0591008 3.2664e-19 -0.000285574)
(-0.0586542 2.7321e-20 -0.000236127)
(-0.0581828 1.95098e-19 -0.000192641)
(-0.0576932 -5.45149e-19 -0.000155726)
(-0.0571929 1.63107e-19 -0.000126085)
(-0.0566905 -2.02299e-19 -0.000104589)
(-0.0561948 1.8423e-19 -9.23012e-05)
(-0.0557157 -2.99999e-19 -9.04676e-05)
(-0.0552632 1.96552e-19 -0.000100392)
(-0.0548477 -2.51428e-19 -0.000123275)
(-0.0544797 -3.04774e-19 -0.000160028)
(-0.054169 2.57391e-19 -0.000211608)
(-0.0539246 -2.70004e-19 -0.000277839)
(-0.053755 2.55716e-19 -0.000357685)
(-0.053671 -5.27429e-19 -0.00045028)
(-0.0536896 2.70597e-19 -0.000553321)
(-0.0538303 -2.61628e-19 -0.000664605)
(-0.0541103 2.28871e-19 -0.000779538)
(-0.0545424 -3.03808e-19 -0.00090292)
(-0.0551454 -2.07756e-19 -0.00104274)
(-0.055926 1.8805e-19 -0.00120167)
(-0.0568859 -3.3704e-19 -0.00137934)
(-0.0580393 1.73907e-19 -0.00157492)
(-0.0594 -1.94973e-19 -0.00178724)
(-0.0609807 1.81031e-19 -0.00201466)
(-0.0627931 -6.09213e-19 -0.00225427)
(-0.0648459 -2.85998e-20 -0.00250086)
(-0.067143 1.95822e-19 -0.00274683)
(-0.0696819 -6.40784e-19 -0.00297115)
(-0.0724455 1.50548e-19 -0.00317367)
(-0.0754581 -7.07464e-19 -0.00323484)
(-0.0785613 1.54707e-19 -0.00321626)
(-0.0821465 -5.01335e-19 -0.00297075)
(-0.0882437 1.47562e-19 -0.00129325)
(-0.134988 -3.6661e-19 -0.00113716)
(-0.127235 -3.39335e-19 -0.00487578)
(-0.235499 1.57289e-19 -0.000879732)
(-0.269238 -1.38323e-19 -0.0879661)
(-0.139066 -2.36332e-20 -0.131454)
(-0.133519 -3.03549e-19 -0.141065)
(-0.0841712 -1.37633e-19 -0.164697)
(-0.063472 -5.74736e-20 -0.165562)
(-0.0268006 4.30293e-19 -0.169733)
(-0.00929642 -1.10698e-21 -0.16135)
(-0.00137267 -3.55824e-19 -0.15518)
(-0.0353894 1.90885e-23 -3.41952e-05)
(-0.0356608 3.22633e-22 -0.000102273)
(-0.035725 7.26997e-21 -0.000170892)
(-0.0357929 1.71969e-19 -0.000237313)
(-0.0358809 6.53967e-21 -0.000303144)
(-0.0359964 -7.97169e-22 -0.000369008)
(-0.0361443 4.20057e-21 -0.000435147)
(-0.0363271 2.01942e-19 -0.000501448)
(-0.0365443 -1.3919e-19 -0.000567665)
(-0.0367942 -1.72689e-20 -0.00063352)
(-0.0370746 -1.85073e-19 -0.000698751)
(-0.0373835 1.37633e-19 -0.000763169)
(-0.0377199 -1.48937e-19 -0.000826696)
(-0.038084 -1.77056e-20 -0.000888166)
(-0.0384757 -1.96835e-19 -0.000945998)
(-0.0388936 1.64864e-19 -0.00100037)
(-0.039338 -1.93365e-19 -0.00105142)
(-0.0398094 -2.25532e-19 -0.00109985)
(-0.0403061 4.00157e-19 -0.00114604)
(-0.0408271 -2.23678e-19 -0.00119052)
(-0.0413712 -3.0127e-19 -0.00123344)
(-0.0419373 -2.98068e-19 -0.0012757)
(-0.0425245 -1.31007e-20 -0.00131713)
(-0.0431321 -3.09418e-19 -0.00135762)
(-0.0437589 -2.69023e-20 -0.00139715)
(-0.0444038 -4.80433e-19 -0.00143553)
(-0.0450654 2.89557e-19 -0.0014725)
(-0.0457422 4.99223e-19 -0.00150781)
(-0.0464326 -2.56816e-19 -0.00154119)
(-0.0471349 -3.27144e-19 -0.00157235)
(-0.0478474 -2.99981e-19 -0.001601)
(-0.0485681 -1.90322e-20 -0.00162685)
(-0.0492948 -5.25784e-19 -0.0016496)
(-0.0500254 -2.56383e-20 -0.00166893)
(-0.0507574 3.15132e-19 -0.00168451)
(-0.0514885 6.78261e-21 -0.00169604)
(-0.0522159 1.12337e-19 -0.00170319)
(-0.052937 2.36847e-21 -0.00170564)
(-0.0536488 -1.5088e-20 -0.00170309)
(-0.0543484 1.28e-19 -0.00169525)
(-0.0550327 1.01264e-20 -0.00168187)
(-0.0556986 3.58149e-19 -0.00166273)
(-0.0563428 8.79068e-21 -0.00163769)
(-0.0569621 1.34949e-19 -0.00160679)
(-0.0575531 -3.17126e-20 -0.00156996)
(-0.0581124 -6.02981e-19 -0.00152759)
(-0.058637 1.15059e-19 -0.00148007)
(-0.059124 9.9017e-21 -0.00142726)
(-0.0595689 2.96279e-19 -0.00136953)
(-0.0599692 4.61704e-21 -0.00130627)
(-0.0603237 9.83368e-21 -0.00123708)
(-0.0606288 2.98992e-19 -0.00116094)
(-0.0608816 2.98912e-19 -0.00107826)
(-0.0610802 -2.87831e-19 -0.00098973)
(-0.0612232 -6.61237e-21 -0.000896046)
(-0.0613095 2.69934e-19 -0.000797998)
(-0.0613385 -2.96587e-19 -0.000696485)
(-0.0613101 -1.33422e-20 -0.000592551)
(-0.0612246 5.4488e-21 -0.000487354)
(-0.0610829 2.83493e-19 -0.00038213)
(-0.0608865 5.89671e-21 -0.000278216)
(-0.0606378 -8.11044e-21 -0.000176947)
(-0.0603399 -5.39767e-21 -8.02648e-05)
(-0.0599958 -6.81996e-21 1.04293e-05)
(-0.059609 5.88391e-20 9.40795e-05)
(-0.0591847 3.32261e-19 0.000169321)
(-0.0587284 1.12647e-20 0.000235017)
(-0.0582461 -3.1515e-20 0.000290131)
(-0.0577446 -6.36289e-19 0.000333394)
(-0.0572312 -3.36668e-20 0.000363662)
(-0.0567141 5.47196e-21 0.000379709)
(-0.056202 -3.36464e-20 0.000380264)
(-0.0557044 -6.04728e-19 0.000364029)
(-0.0552316 -3.12526e-20 0.000329811)
(-0.0547944 -1.76524e-20 0.000276082)
(-0.0544038 -5.12425e-19 0.000201805)
(-0.0540699 -2.74719e-20 0.000105976)
(-0.0538021 2.44595e-21 -1.2495e-05)
(-0.0536105 -2.78549e-20 -0.000153148)
(-0.0535076 -4.95514e-19 -0.000314554)
(-0.053512 -2.7921e-20 -0.000494292)
(-0.0536413 6.45974e-21 -0.000688653)
(-0.0539024 -2.89544e-20 -0.000901984)
(-0.0543112 -5.87183e-19 -0.00115225)
(-0.054883 -1.08863e-20 -0.00144416)
(-0.0556264 -3.56611e-20 -0.00177138)
(-0.056552 -6.08759e-19 -0.00213544)
(-0.057673 -5.79154e-20 -0.0025337)
(-0.0590035 1.98437e-20 -0.00296416)
(-0.0605578 -5.38423e-20 -0.0034244)
(-0.06235 -5.99967e-19 -0.00391071)
(-0.0643936 8.01462e-21 -0.00441683)
(-0.0667003 -8.3171e-20 -0.00493408)
(-0.0692795 -5.79363e-19 -0.005436)
(-0.0721395 -8.58931e-20 -0.00594411)
(-0.0753319 -5.77426e-19 -0.00625547)
(-0.0787854 -8.05425e-20 -0.00669203)
(-0.0832596 -6.09846e-19 -0.0064587)
(-0.0900219 -4.62974e-20 -0.00566679)
(-0.130492 8.74405e-20 -0.00523964)
(-0.12655 9.51617e-19 -0.00996712)
(-0.169414 -5.82501e-20 -0.00831827)
(-0.142757 -4.17742e-20 -0.0765561)
(-0.106423 -1.03576e-19 -0.116428)
(-0.0955229 -6.57035e-20 -0.125238)
(-0.0711301 -4.40751e-20 -0.147171)
(-0.0541802 1.2799e-20 -0.148549)
(-0.0346151 -2.55755e-20 -0.153736)
(-0.0201161 -4.33836e-19 -0.148117)
(-0.00861251 1.29653e-19 -0.143726)
(-0.0353114 -1.22386e-23 -4.5559e-05)
(-0.0355842 -1.22753e-22 -0.000135804)
(-0.03565 -1.33989e-21 -0.000226352)
(-0.0357189 -2.65065e-20 -0.000314517)
(-0.0358071 -1.71828e-19 -0.000402376)
(-0.0359226 -2.0595e-19 -0.000490327)
(-0.0360705 -1.79543e-19 -0.000578449)
(-0.0362534 -1.51941e-19 -0.000666494)
(-0.0364711 2.80685e-19 -0.000754142)
(-0.0367217 -1.52971e-19 -0.000841044)
(-0.0370031 3.16198e-19 -0.000926857)
(-0.0373136 -1.90708e-19 -0.00101165)
(-0.0376521 2.26556e-19 -0.00109425)
(-0.0380178 -1.4481e-19 -0.00117327)
(-0.0384116 3.73144e-19 -0.00124984)
(-0.0388335 -1.5587e-19 -0.00132473)
(-0.0392813 3.63786e-19 -0.00139879)
(-0.0397546 3.24861e-19 -0.00147159)
(-0.0402526 -1.70701e-19 -0.00154338)
(-0.0407746 3.98789e-19 -0.00161414)
(-0.0413194 4.32117e-19 -0.00168357)
(-0.0418861 3.66216e-19 -0.00175122)
(-0.0424743 1.58268e-20 -0.00181674)
(-0.0430831 -5.22273e-21 -0.00188)
(-0.0437115 2.2935e-19 -0.00194087)
(-0.0443582 9.1057e-21 -0.00199911)
(-0.045022 2.74742e-19 -0.00205442)
(-0.0457013 -1.63091e-19 -0.00210645)
(-0.0463945 3.96051e-19 -0.00215482)
(-0.0471001 4.73655e-19 -0.00219913)
(-0.0478162 4.74391e-19 -0.00223895)
(-0.0485408 6.08048e-21 -0.00227386)
(-0.0492719 -2.92191e-20 -0.00230339)
(-0.0500072 -2.26695e-19 -0.0023271)
(-0.0507444 -2.19714e-19 -0.0023445)
(-0.051481 -2.84183e-19 -0.00235514)
(-0.0522144 -2.43386e-19 -0.00235854)
(-0.0529418 -2.82901e-19 -0.00235424)
(-0.0536602 -2.92641e-19 -0.00234181)
(-0.0543668 -2.2155e-19 -0.00232082)
(-0.0550584 -2.83166e-19 -0.0022909)
(-0.0557318 -2.53694e-19 -0.00225171)
(-0.0563837 -3.10954e-19 -0.002203)
(-0.0570106 -2.54395e-19 -0.00214455)
(-0.0576091 -2.84081e-19 -0.00207616)
(-0.0581756 2.31481e-19 -0.00199757)
(-0.0587069 -2.20033e-19 -0.00190871)
(-0.0592002 -3.29029e-19 -0.00181002)
(-0.0596524 -2.77333e-19 -0.00170191)
(-0.060061 -3.57159e-19 -0.00158628)
(-0.0604218 -2.65186e-19 -0.00146408)
(-0.0607322 -2.83586e-19 -0.00133558)
(-0.0609909 -3.03675e-19 -0.00119991)
(-0.0611951 -2.86645e-19 -0.00105707)
(-0.0613428 -2.06316e-20 -0.000908354)
(-0.061433 -3.01037e-19 -0.000754874)
(-0.0614647 -2.94628e-19 -0.000597877)
(-0.0614377 -2.93421e-19 -0.000438872)
(-0.0613522 -2.85985e-19 -0.000279524)
(-0.061209 -3.10121e-19 -0.000121522)
(-0.0610094 -3.03345e-19 3.3408e-05)
(-0.0607559 -3.02565e-19 0.000183082)
(-0.0604513 -2.85486e-19 0.00032514)
(-0.0600988 -3.01824e-19 0.000458479)
(-0.0597023 -2.87306e-19 0.00058087)
(-0.0592668 -2.83841e-19 0.000690056)
(-0.0587976 -2.1293e-20 0.000783787)
(-0.058301 -2.43756e-19 0.000859895)
(-0.0577835 5.23148e-19 0.000916342)
(-0.0572526 -2.25638e-19 0.00095123)
(-0.0567166 2.5762e-19 0.000962735)
(-0.0561842 -2.38337e-19 0.000949142)
(-0.055665 2.33931e-19 0.000908835)
(-0.0551693 -2.49211e-19 0.000840445)
(-0.0547079 2.75823e-19 0.000742917)
(-0.0542918 2.43534e-19 0.000615334)
(-0.0539317 -2.56486e-19 0.000457439)
(-0.0536373 2.48039e-19 0.000268355)
(-0.053419 -2.3817e-19 4.65894e-05)
(-0.0532923 4.55038e-19 -0.00020713)
(-0.0532749 -2.5654e-19 -0.000488728)
(-0.0533714 2.78147e-19 -0.000809044)
(-0.0535911 -3.22398e-19 -0.00118781)
(-0.0539529 2.23194e-19 -0.00162034)
(-0.0544781 2.85595e-19 -0.0020969)
(-0.0551783 -2.72018e-19 -0.00262064)
(-0.0560631 2.4619e-19 -0.00319105)
(-0.0571453 -2.28003e-19 -0.00380696)
(-0.058439 2.39636e-19 -0.00446717)
(-0.0599593 -2.3433e-19 -0.00516991)
(-0.061722 5.29147e-19 -0.00591228)
(-0.0637434 3.27296e-20 -0.00668927)
(-0.06604 -2.34391e-19 -0.00749371)
(-0.0686289 5.40095e-19 -0.00830081)
(-0.0715304 -1.67833e-19 -0.00915511)
(-0.0748073 5.8679e-19 -0.00977876)
(-0.0784339 -1.71444e-19 -0.0108182)
(-0.083277 3.62597e-19 -0.0106839)
(-0.0905861 1.13046e-20 -0.011732)
(-0.127264 4.43913e-19 -0.0105953)
(-0.125117 4.41561e-19 -0.0156071)
(-0.160201 -1.89711e-19 -0.0243333)
(-0.122021 8.45651e-20 -0.0584952)
(-0.0944173 -3.16783e-20 -0.0905524)
(-0.0839784 1.94557e-19 -0.10279)
(-0.0632681 1.98815e-21 -0.124843)
(-0.0483228 -5.55044e-20 -0.128395)
(-0.0313382 -2.10065e-19 -0.136085)
(-0.0183446 1.73856e-19 -0.135503)
(-0.00802104 2.61817e-19 -0.135152)
(-0.0352079 -3.63031e-23 -5.85296e-05)
(-0.0354815 -6.54701e-22 -0.000174789)
(-0.0355487 -1.25428e-20 -0.00029167)
(-0.0356184 -1.33592e-19 -0.000405645)
(-0.0357069 1.65878e-19 -0.000519272)
(-0.0358225 1.89709e-19 -0.000632886)
(-0.0359706 1.76233e-19 -0.000746511)
(-0.0361539 -3.10704e-21 -0.000859836)
(-0.0363722 -1.44399e-19 -0.000972515)
(-0.0366239 1.59661e-19 -0.00108417)
(-0.0369069 -1.57561e-19 -0.00119474)
(-0.0372189 -1.46254e-20 -0.00130385)
(-0.0375593 -1.10325e-19 -0.00140955)
(-0.037928 1.52609e-19 -0.00151386)
(-0.0383243 -1.60482e-19 -0.00161797)
(-0.0387468 -1.99331e-20 -0.00172071)
(-0.0391952 -1.77402e-19 -0.00182215)
(-0.0396691 -2.00679e-19 -0.0019222)
(-0.0401682 -2.40027e-19 -0.00202081)
(-0.0406915 -1.76202e-19 -0.00211778)
(-0.0412381 -1.8321e-19 -0.00221276)
(-0.0418073 -2.27028e-19 -0.00230526)
(-0.0423981 1.46956e-21 -0.0023948)
(-0.0430099 1.89321e-19 -0.00248102)
(-0.0436415 -1.5653e-19 -0.00256356)
(-0.0442918 3.94791e-19 -0.00264207)
(-0.0449594 -4.48623e-19 -0.00271611)
(-0.0456431 -2.39089e-19 -0.00278523)
(-0.0463411 -1.87609e-19 -0.00284893)
(-0.047052 -1.98054e-19 -0.0029067)
(-0.0477738 -2.05915e-19 -0.00295798)
(-0.0485047 1.46671e-20 -0.00300221)
(-0.0492425 4.73703e-19 -0.0030388)
(-0.0499852 2.06095e-19 -0.00306716)
(-0.0507302 1.01877e-20 -0.00308668)
(-0.0514752 2.36e-19 -0.00309674)
(-0.0522175 2.72505e-19 -0.00309676)
(-0.0529543 2.65214e-19 -0.00308613)
(-0.0536828 2.34148e-19 -0.00306429)
(-0.0543997 2.64968e-19 -0.0030307)
(-0.0551021 2.61279e-19 -0.00298487)
(-0.0557866 1.26629e-20 -0.00292637)
(-0.0564499 2.55178e-19 -0.00285481)
(-0.0570886 2.98203e-19 -0.00276991)
(-0.057699 3.19571e-19 -0.00267141)
(-0.0582777 3.12145e-19 -0.00255912)
(-0.0588212 2.91789e-19 -0.00243299)
(-0.0593261 2.65683e-19 -0.00229318)
(-0.059789 1.42065e-20 -0.00213995)
(-0.0602064 2.59774e-19 -0.00197381)
(-0.0605759 3.09769e-19 -0.00179537)
(-0.0608947 5.39163e-21 -0.00160758)
(-0.0611602 2.64503e-20 -0.00141238)
(-0.0613709 5.87282e-19 -0.00121002)
(-0.0615242 1.88088e-20 -0.00100052)
(-0.0616185 1.45643e-20 -0.000785666)
(-0.0616527 6.066e-19 -0.000567065)
(-0.0616264 3.19412e-19 -0.000346767)
(-0.0615398 3.06305e-19 -0.000127002)
(-0.0613935 1.38255e-20 9.00986e-05)
(-0.0611885 2.96921e-19 0.000302039)
(-0.060927 3.08617e-19 0.000505435)
(-0.0606124 2.91873e-19 0.000698383)
(-0.0602477 2.8653e-19 0.000878764)
(-0.0598366 3.02264e-19 0.00104352)
(-0.0593839 -5.68942e-22 0.00118977)
(-0.058895 4.07515e-21 0.00131453)
(-0.0583761 2.63571e-19 0.0014149)
(-0.057834 6.3417e-20 0.00148807)
(-0.0572765 2.49123e-19 0.0015314)
(-0.0567117 -2.24228e-19 0.00154238)
(-0.0561487 2.3102e-19 0.00151873)
(-0.0555972 3.2786e-19 0.00145839)
(-0.0550679 2.3502e-19 0.00135954)
(-0.0545718 -2.23454e-19 0.0012207)
(-0.05412 2.97896e-19 0.00104054)
(-0.0537232 2.20633e-19 0.000818327)
(-0.0533922 -2.0655e-19 0.000554703)
(-0.0531401 2.01749e-19 0.000250066)
(-0.0529779 1.12505e-19 -9.36475e-05)
(-0.052911 1.75912e-19 -0.000489902)
(-0.0529462 -1.57414e-19 -0.000958004)
(-0.0531068 2.28602e-19 -0.00148823)
(-0.0534172 2.96555e-19 -0.00207311)
(-0.0538909 -2.18887e-19 -0.00271538)
(-0.0545385 2.45965e-19 -0.00341689)
(-0.0553712 3.01631e-19 -0.00417794)
(-0.056402 2.12626e-19 -0.00499838)
(-0.0576451 -2.29179e-19 -0.0058779)
(-0.0591165 2.63939e-19 -0.00681584)
(-0.0608332 5.10554e-20 -0.00781069)
(-0.0628138 -2.35371e-22 -0.00885955)
(-0.065078 2.86743e-19 -0.00995757)
(-0.0676486 6.71759e-20 -0.0110856)
(-0.0705523 2.82767e-19 -0.0123021)
(-0.0738501 7.79338e-20 -0.0132809)
(-0.0775668 2.96418e-19 -0.014945)
(-0.0825251 3.26575e-19 -0.015031)
(-0.0902136 1.65486e-19 -0.0177401)
(-0.123339 -1.60452e-19 -0.0159351)
(-0.120983 1.18771e-20 -0.0216488)
(-0.135635 -1.79696e-19 -0.0334036)
(-0.0813031 -1.00059e-19 -0.0523626)
(-0.0701893 1.27549e-19 -0.08466)
(-0.0646843 -1.56852e-20 -0.0904273)
(-0.0514687 -1.48839e-19 -0.111771)
(-0.0411584 -1.28461e-19 -0.114607)
(-0.0291206 3.68888e-19 -0.122752)
(-0.0187928 1.02873e-19 -0.123517)
(-0.00912856 -2.80586e-19 -0.124342)
(-0.0350779 -2.06062e-23 -7.21126e-05)
(-0.0353514 -3.36902e-22 -0.000215802)
(-0.0354198 -5.79029e-21 -0.000360916)
(-0.0354903 -5.21062e-21 -0.000502746)
(-0.0355794 1.33135e-20 -0.000644148)
(-0.0356952 8.4854e-21 -0.00078538)
(-0.0358438 1.91808e-21 -0.000926426)
(-0.0360277 -3.84619e-20 -0.00106694)
(-0.0362469 6.85006e-20 -0.00120658)
(-0.0364999 6.66348e-21 -0.00134512)
(-0.0367843 4.73394e-21 -0.00148277)
(-0.0370982 6.58734e-20 -0.00161726)
(-0.0374404 5.63666e-20 -0.0017501)
(-0.0378105 6.93467e-21 -0.00188294)
(-0.0382074 -5.6485e-20 -0.00201431)
(-0.038631 1.57962e-20 -0.00214425)
(-0.0390808 7.12654e-21 -0.0022726)
(-0.0395564 2.474e-20 -0.00239909)
(-0.0400574 1.17269e-20 -0.00252345)
(-0.0405829 -2.14126e-20 -0.00264535)
(-0.0411322 1.16537e-22 -0.0027644)
(-0.0417045 4.24889e-20 -0.00288011)
(-0.0422991 2.78251e-20 -0.00299197)
(-0.0429149 -3.8093e-21 -0.00309952)
(-0.0435509 -5.7425e-21 -0.00320226)
(-0.0442062 -4.07907e-20 -0.0032997)
(-0.0448793 -4.46411e-20 -0.00339129)
(-0.0455689 -7.64622e-21 -0.00347644)
(-0.0462735 4.40805e-22 -0.00355455)
(-0.0469915 4.05578e-21 -0.00362495)
(-0.0477211 -9.41201e-21 -0.00368697)
(-0.0484604 3.90347e-20 -0.00373991)
(-0.0492074 3.51846e-20 -0.00378302)
(-0.0499598 -1.02435e-20 -0.00381558)
(-0.0507152 6.71708e-21 -0.00383683)
(-0.0514714 9.39558e-21 -0.00384602)
(-0.0522254 5.13778e-20 -0.00384239)
(-0.0529746 9.55723e-21 -0.00382522)
(-0.0537161 -9.18423e-21 -0.0037938)
(-0.0544467 1.18087e-20 -0.00374748)
(-0.0551632 1.07337e-20 -0.00368564)
(-0.0558623 1.92878e-20 -0.00360774)
(-0.0565405 1.28627e-20 -0.00351333)
(-0.0571944 3.70567e-20 -0.00340202)
(-0.0578202 1.73818e-20 -0.00327357)
(-0.0584145 -7.50816e-21 -0.00312781)
(-0.0589735 4.23576e-20 -0.00296476)
(-0.0594937 1.38016e-20 -0.00278463)
(-0.0599714 5.71078e-20 -0.00258779)
(-0.0604031 1.39515e-20 -0.00237483)
(-0.0607854 5.72034e-20 -0.00214652)
(-0.0611149 6.6407e-20 -0.00190376)
(-0.0613896 7.21324e-20 -0.00164891)
(-0.0616074 2.3803e-20 -0.00138573)
(-0.0617668 -2.40731e-20 -0.00111543)
(-0.0618667 1.03927e-20 -0.000838686)
(-0.0619046 2.5109e-20 -0.000557805)
(-0.0618787 1.13216e-20 -0.000275249)
(-0.0617896 1.23975e-20 6.24529e-06)
(-0.0616379 2.24779e-20 0.000283691)
(-0.0614248 1.27241e-20 0.000553522)
(-0.0611527 6.16457e-20 0.000812952)
(-0.0608246 -1.29371e-20 0.00105969)
(-0.0604434 1.43106e-20 0.0012899)
(-0.0600127 6.27612e-20 0.00149996)
(-0.0595372 3.96142e-20 0.00168623)
(-0.0590221 -6.50911e-21 0.00184502)
(-0.0584739 1.42956e-20 0.00197271)
(-0.0578994 -2.01875e-20 0.00206579)
(-0.0573065 9.38229e-21 0.00212089)
(-0.0567036 -5.47447e-21 0.00213483)
(-0.0561001 -2.75847e-21 0.00210471)
(-0.0555059 2.38531e-21 0.00202794)
(-0.0549321 1.43137e-20 0.0019022)
(-0.05439 1.85793e-21 0.00172564)
(-0.0538912 -7.43603e-20 0.00149677)
(-0.0534475 8.15328e-21 0.00121499)
(-0.0530713 1.7761e-21 0.000881114)
(-0.0527728 -4.16271e-21 0.000494862)
(-0.0525536 -9.33727e-20 4.85186e-05)
(-0.0524121 -4.14965e-21 -0.000472378)
(-0.0523788 8.78278e-22 -0.00106629)
(-0.0524795 1.57741e-20 -0.00172669)
(-0.052728 -5.97042e-20 -0.00245586)
(-0.0531368 8.3271e-21 -0.00325645)
(-0.0537181 2.92382e-20 -0.00413018)
(-0.0544841 -1.92986e-21 -0.0050781)
(-0.0554479 -2.21411e-20 -0.00610101)
(-0.0566239 5.4303e-22 -0.00719965)
(-0.0580285 1.12732e-20 -0.00837461)
(-0.0596795 -5.22128e-21 -0.00962601)
(-0.0615971 6.92888e-20 -0.0109533)
(-0.063803 -2.08313e-20 -0.0123541)
(-0.0663234 2.67694e-20 -0.0138169)
(-0.0691876 4.34202e-21 -0.015401)
(-0.072447 3.88891e-20 -0.0167693)
(-0.0761789 6.6083e-20 -0.0190238)
(-0.0810921 2.17143e-20 -0.0193808)
(-0.0890825 -5.47893e-20 -0.0235057)
(-0.11932 3.92989e-20 -0.0211671)
(-0.116463 4.06169e-18 -0.0276155)
(-0.122247 -4.60669e-19 -0.041739)
(-0.0650205 -1.02814e-19 -0.0476053)
(-0.0539208 -2.90121e-20 -0.0795209)
(-0.051941 1.232e-19 -0.080817)
(-0.0415133 -6.51041e-20 -0.101232)
(-0.0340703 7.18548e-20 -0.103619)
(-0.024644 8.17588e-20 -0.111834)
(-0.0163101 -4.07089e-19 -0.113567)
(-0.00813142 1.13273e-19 -0.115401)
(-0.0349201 -1.9699e-23 -8.61158e-05)
(-0.0351931 -3.2872e-22 -0.000258006)
(-0.0352625 -5.79239e-21 -0.000432146)
(-0.0353338 -1.52739e-20 -0.000602695)
(-0.0354234 -1.2296e-20 -0.000772797)
(-0.0355398 -3.96289e-20 -0.000942615)
(-0.035689 -3.64811e-20 -0.00111208)
(-0.0358737 1.38089e-20 -0.00128078)
(-0.0360941 1.70807e-19 -0.00144842)
(-0.0363485 2.20867e-20 -0.00161514)
(-0.0366345 1.52579e-19 -0.0017794)
(-0.0369502 1.45192e-20 -0.00194075)
(-0.037294 1.49539e-19 -0.0021022)
(-0.037665 7.2366e-21 -0.00226226)
(-0.0380633 1.60695e-19 -0.00242061)
(-0.0384885 1.70603e-20 -0.00257722)
(-0.0389403 2.36125e-19 -0.00273182)
(-0.0394182 1.58815e-19 -0.00288406)
(-0.0399218 -1.70376e-19 -0.00303356)
(-0.0404503 2.21211e-19 -0.00317991)
(-0.0410032 1.97281e-19 -0.00332264)
(-0.0415795 2.11277e-19 -0.00346122)
(-0.0421786 1.64978e-20 -0.0035951)
(-0.0427995 1.54557e-19 -0.00372369)
(-0.0434412 2.17266e-20 -0.00384642)
(-0.0441026 1.20627e-19 -0.00396264)
(-0.0447826 2.61021e-20 -0.0040717)
(-0.0454797 -1.42003e-19 -0.00417289)
(-0.0461925 2.47412e-19 -0.00426546)
(-0.0469195 2.03919e-19 -0.00434864)
(-0.0476588 1.81018e-19 -0.00442159)
(-0.0484086 2.62008e-20 -0.00448348)
(-0.0491668 2.15863e-19 -0.00453341)
(-0.0499313 -1.94793e-20 -0.0045705)
(-0.0506998 3.94726e-20 -0.00459384)
(-0.0514697 -2.2937e-20 -0.00460252)
(-0.0522383 3.10824e-20 -0.00459563)
(-0.0530029 -2.21295e-19 -0.0045723)
(-0.0537605 -1.70463e-20 -0.00453167)
(-0.0545079 4.43738e-20 -0.00447294)
(-0.0552419 -1.88585e-20 -0.00439536)
(-0.055959 4.59045e-20 -0.00429829)
(-0.0566557 -9.92929e-22 -0.00418115)
(-0.0573284 4.88549e-20 -0.0040435)
(-0.0579733 9.84464e-21 -0.00388504)
(-0.0585866 2.1244e-19 -0.00370562)
(-0.0591645 3.66816e-20 -0.00350529)
(-0.0597033 -1.86642e-20 -0.00328431)
(-0.0601991 4.50317e-20 -0.00304318)
(-0.060648 -1.35455e-20 -0.00278266)
(-0.0610465 4.16176e-20 -0.00250375)
(-0.0613909 5.66653e-20 -0.00220764)
(-0.0616779 5.64148e-20 -0.00189578)
(-0.0619052 -7.40328e-20 -0.00157049)
(-0.062072 -2.63612e-19 -0.00123533)
(-0.0621761 3.02939e-20 -0.000893671)
(-0.0622155 -4.18173e-20 -0.000549157)
(-0.0621898 3.84856e-20 -0.000203495)
(-0.0620983 -4.28101e-20 0.000140923)
(-0.0619412 3.96004e-20 0.000480035)
(-0.061719 -6.64148e-20 0.000810492)
(-0.0614342 2.91462e-20 0.00112928)
(-0.0610897 -3.37258e-19 0.00143224)
(-0.060688 -5.92661e-20 0.00171492)
(-0.0602329 5.85315e-20 0.00197302)
(-0.0597289 4.46237e-20 0.00220219)
(-0.0591814 -9.98628e-21 0.00239797)
(-0.0585968 -5.26639e-20 0.00255599)
(-0.0579821 2.70036e-19 0.00267204)
(-0.0573454 -5.80115e-21 0.00274203)
(-0.0566954 5.59074e-20 0.00276213)
(-0.0560417 -4.79011e-20 0.00272883)
(-0.0553947 2.18611e-19 0.00263902)
(-0.0547657 -3.2246e-20 0.00248994)
(-0.0541667 8.1166e-20 0.00227937)
(-0.0536099 2.11333e-19 0.00200563)
(-0.053108 -6.82933e-20 0.00166789)
(-0.0526723 1.24278e-19 0.0012652)
(-0.0523071 -1.19289e-19 0.000793197)
(-0.0520099 3.02827e-19 0.000242059)
(-0.0517943 -8.01413e-20 -0.000391264)
(-0.0516899 5.03463e-20 -0.00110117)
(-0.0517166 -6.19398e-20 -0.0018906)
(-0.0518882 1.99921e-19 -0.00276289)
(-0.0522179 6.24593e-20 -0.00372008)
(-0.0527184 1.23896e-21 -0.00476441)
(-0.0534023 2.02739e-19 -0.00589793)
(-0.0542826 -6.40463e-20 -0.00712263)
(-0.0553738 5.3321e-20 -0.00844048)
(-0.0566922 1.61392e-20 -0.00985349)
(-0.0582565 2.3129e-19 -0.0113635)
(-0.0600872 -2.06207e-20 -0.0129722)
(-0.0622075 1.90675e-20 -0.0146799)
(-0.064645 2.33213e-19 -0.0164829)
(-0.0674291 -2.32283e-20 -0.0184306)
(-0.0706012 2.20739e-19 -0.0202081)
(-0.0742816 -1.57056e-20 -0.0229885)
(-0.0790502 1.3023e-19 -0.0236463)
(-0.0872484 -1.18822e-19 -0.028923)
(-0.114879 1.04438e-19 -0.0261866)
(-0.111359 3.19332e-19 -0.0335369)
(-0.109439 -9.87748e-19 -0.0486002)
(-0.0491308 1.01889e-19 -0.0466704)
(-0.0389049 2.68903e-19 -0.0773716)
(-0.0403598 2.56282e-20 -0.0752782)
(-0.0325204 -3.07786e-19 -0.0938418)
(-0.0277406 -1.05764e-19 -0.0956037)
(-0.0206274 3.4314e-19 -0.103189)
(-0.0142206 1.39207e-19 -0.105176)
(-0.0073699 -3.03497e-19 -0.107318)
(-0.0347341 -1.06633e-23 -0.000100399)
(-0.0350061 -2.14945e-22 -0.000300981)
(-0.0350761 -5.73921e-21 -0.000504538)
(-0.0351481 1.82393e-20 -0.000704193)
(-0.0352384 1.024e-20 -0.000903426)
(-0.0353556 3.32023e-21 -0.00110232)
(-0.0355056 -6.2648e-21 -0.00130073)
(-0.0356914 2.68483e-20 -0.00149816)
(-0.0359131 -1.56797e-19 -0.00169446)
(-0.0361693 -1.65178e-19 -0.0018888)
(-0.0364576 -1.97252e-19 -0.00207939)
(-0.0367748 -3.23255e-22 -0.00226932)
(-0.0371198 -1.64121e-19 -0.00245844)
(-0.0374924 -2.03126e-19 -0.00264569)
(-0.0378924 -1.74018e-19 -0.00283106)
(-0.0383196 1.61038e-20 -0.00301435)
(-0.0387739 -1.85434e-19 -0.00319521)
(-0.0392546 -1.92162e-19 -0.00337323)
(-0.0397614 4.08185e-20 -0.00354797)
(-0.0402937 -1.69672e-19 -0.00371894)
(-0.0408508 -1.98738e-19 -0.0038856)
(-0.041432 -2.07131e-19 -0.00404738)
(-0.0420365 8.72728e-21 -0.00420363)
(-0.0426634 -2.25893e-19 -0.0043537)
(-0.0433119 1.06197e-20 -0.00449687)
(-0.0439808 -2.14746e-19 -0.00463241)
(-0.0446689 4.15375e-19 -0.00475953)
(-0.045375 9.33355e-20 -0.0048774)
(-0.0460977 -1.73404e-19 -0.00498513)
(-0.0468353 -2.05221e-19 -0.00508182)
(-0.0475862 -1.9038e-19 -0.00516648)
(-0.0483485 1.36042e-20 -0.00523813)
(-0.0491202 -2.19012e-19 -0.00529572)
(-0.0498992 -4.08387e-20 -0.0053382)
(-0.0506831 4.8219e-19 -0.0053645)
(-0.0514695 3.69235e-20 -0.00537354)
(-0.0522556 4.46454e-19 -0.00536426)
(-0.0530386 1.32411e-20 -0.0053356)
(-0.0538154 2.07669e-20 -0.00528654)
(-0.054583 5.10989e-19 -0.00521614)
(-0.0553378 4.13707e-20 -0.0051235)
(-0.0560765 5.14152e-19 -0.00500783)
(-0.0567954 4.15158e-20 -0.00486845)
(-0.0574906 5.37476e-19 -0.00470481)
(-0.0581582 1.97766e-20 -0.00451656)
(-0.0587944 -2.97685e-19 -0.00430351)
(-0.059395 5.37505e-19 -0.00406571)
(-0.059956 4.21152e-20 -0.00380347)
(-0.0604733 5.57412e-19 -0.00351738)
(-0.0609428 4.38807e-20 -0.00320831)
(-0.0613606 6.06012e-19 -0.00287748)
(-0.0617229 6.70653e-19 -0.00252636)
(-0.062026 6.42751e-19 -0.00215678)
(-0.0622668 -8.00297e-21 -0.00177086)
(-0.0624429 5.02258e-20 -0.00137153)
(-0.0625521 6.57138e-19 -0.000962455)
(-0.0625936 2.71144e-20 -0.000547763)
(-0.0625672 6.04608e-19 -0.000131318)
(-0.0624713 4.16037e-20 0.00028271)
(-0.0623062 6.13027e-19 0.000689542)
(-0.0620731 4.15166e-20 0.00108562)
(-0.0617738 6.05414e-19 0.00146739)
(-0.0614101 -1.57071e-20 0.00182981)
(-0.0609841 1.33827e-20 0.00216789)
(-0.0605 6.18347e-19 0.00247701)
(-0.0599621 6.30546e-19 0.00275214)
(-0.0593759 -4.06383e-21 0.0029881)
(-0.0587479 -3.79112e-20 0.00317974)
(-0.0580853 -2.5052e-19 0.0033221)
(-0.0573964 -1.87036e-20 0.00341035)
(-0.0566902 4.19718e-20 0.00343999)
(-0.0559767 -6.39312e-20 0.00340692)
(-0.0552668 -2.96467e-19 0.00330748)
(-0.0545722 -1.10437e-20 0.00313843)
(-0.0539054 3.36782e-20 0.00289706)
(-0.0532793 -2.89371e-19 0.00258118)
(-0.0527061 -2.14039e-20 0.0021889)
(-0.0521948 5.13055e-20 0.00171698)
(-0.0517471 -3.82271e-20 0.0011592)
(-0.0513653 -2.63702e-19 0.000510519)
(-0.0510672 -4.46823e-20 -0.0002272)
(-0.0508788 5.38171e-20 -0.0010526)
(-0.0508179 -1.1148e-20 -0.00197054)
(-0.0508993 -2.73443e-19 -0.00298411)
(-0.0511363 5.22589e-20 -0.00409586)
(-0.0515415 7.23739e-21 -0.00530883)
(-0.0521276 -2.53324e-19 -0.00662615)
(-0.0529075 -1.15938e-19 -0.00805102)
(-0.0538956 6.67642e-20 -0.00958669)
(-0.0551082 -4.46483e-20 -0.0112366)
(-0.0565639 -2.26483e-19 -0.0130044)
(-0.0582835 6.6922e-20 -0.0148942)
(-0.0602907 -1.09159e-19 -0.0169084)
(-0.0626139 -1.75092e-19 -0.0190504)
(-0.0652811 -8.27683e-20 -0.0213537)
(-0.0683281 -1.49411e-19 -0.0235498)
(-0.071905 -4.79241e-20 -0.0267928)
(-0.0764907 -3.30974e-19 -0.0277898)
(-0.0848124 -2.42204e-19 -0.0340089)
(-0.110054 5.92101e-20 -0.0310249)
(-0.105958 6.19986e-18 -0.0393602)
(-0.0998482 -1.05308e-18 -0.0547957)
(-0.0378285 -6.51038e-20 -0.0481238)
(-0.0275917 8.49279e-20 -0.0762085)
(-0.0310522 2.69495e-20 -0.0721148)
(-0.0249287 -2.99873e-19 -0.0884414)
(-0.0220091 -3.66228e-20 -0.0897697)
(-0.0166166 4.61991e-19 -0.0964371)
(-0.0117866 -2.6791e-19 -0.0984595)
(-0.00627864 -1.74386e-19 -0.100624)
(-0.0345193 3.91104e-25 -0.000114869)
(-0.0347899 7.38395e-23 -0.000344485)
(-0.0348604 2.15273e-21 -0.000577708)
(-0.0349331 1.57661e-19 -0.000806691)
(-0.0350241 4.5461e-20 -0.00103531)
(-0.0351421 4.29673e-20 -0.00126358)
(-0.0352931 1.35994e-20 -0.00149126)
(-0.0354803 7.9524e-21 -0.00171779)
(-0.0357041 1.58158e-19 -0.00194241)
(-0.035963 -3.13228e-21 -0.00216284)
(-0.0362529 1.18669e-19 -0.00238146)
(-0.0365716 2.22194e-20 -0.00259997)
(-0.0369181 1.41218e-19 -0.00281676)
(-0.0372924 -2.58735e-20 -0.00303161)
(-0.0376945 2.01059e-19 -0.00324435)
(-0.0381242 2.91563e-20 -0.00345466)