/*--------------------------------*- C++ -*----------------------------------*\
| =========                 |                                                 |
| \\      /  F ield         | OpenFOAM: The Open Source CFD Toolbox           |
|  \\    /   O peration     | Version:  v2106                                 |
|   \\  /    A nd           | Website:  www.openfoam.com                      |
|    \\/     M anipulation  |                                                 |
\*---------------------------------------------------------------------------*/
FoamFile
{
    version     2.0;
    format      ascii;
    arch        "LSB;label=32;scalar=64";
    class       volScalarField;
    location    "1.6";
    object      k;
}
// * * * * * * * * * * * * * * * * * * * * * * * * * * * * * * * * * * * * * //

dimensions      [0 2 -2 0 0 0 0];

internalField   nonuniform List<scalar> 
29678
(
0.000124658
0.000176666
0.000196482
0.000204173
0.000207784
0.000209758
0.000210958
0.000211745
0.000212293
0.000212699
0.000213016
0.000213281
0.000213517
0.000213738
0.000213955
0.000214172
0.000214394
0.000214622
0.000214859
0.000215107
0.000215369
0.000215645
0.000215941
0.000216259
0.000216604
0.000216982
0.000217397
0.000217812
0.000218217
0.000218611
0.000218996
0.000219373
0.000219742
0.000220058
0.000220373
0.000220756
0.000221148
0.000221537
0.00022188
0.000222099
0.000222229
0.000222282
0.000222278
0.000222237
0.000222145
0.000222011
0.000221914
0.000221877
0.000221881
0.000221912
0.000221981
0.000222099
0.000222259
0.000222447
0.000222665
0.000222921
0.000223227
0.000223567
0.000223929
0.000224303
0.000224643
0.000224941
0.000225217
0.000225448
0.000225643
0.000225821
0.00022595
0.000225982
0.000225879
0.000225608
0.000225317
0.000225061
0.000224956
0.000225071
0.000225176
0.00022498
0.000224506
0.000223959
0.000223848
0.000224329
0.000225163
0.000225815
0.000226328
0.000226803
0.000227279
0.000227777
0.000228031
0.000227597
0.000228699
0.000229935
0.000229671
0.000231109
0.000232377
0.000234871
0.000241304
0.00025655
0.000288324
0.000341724
0.000359673
0.000369412
0.000351312
0.000322761
0.000298947
0.00027898
0.000262561
0.000249949
0.000240869
0.000234967
0.000229563
0.000222643
0.000124629
0.000176709
0.000196538
0.000204244
0.000207871
0.000209859
0.000211073
0.000211874
0.000212434
0.000212848
0.000213175
0.000213452
0.000213701
0.000213938
0.000214173
0.000214412
0.000214658
0.000214915
0.000215184
0.000215468
0.000215771
0.000216094
0.000216442
0.000216819
0.00021723
0.000217646
0.000218055
0.000218456
0.000218852
0.000219242
0.000219628
0.000220009
0.000220389
0.00022077
0.000221154
0.000221538
0.000221918
0.000222291
0.000222617
0.000222827
0.000222948
0.000222992
0.000222972
0.000222897
0.000222761
0.00022262
0.000222538
0.000222509
0.000222527
0.00022259
0.000222697
0.000222855
0.000223056
0.000223287
0.000223549
0.000223849
0.000224196
0.000224577
0.000224979
0.000225376
0.000225702
0.000225972
0.000226199
0.000226386
0.000226542
0.000226669
0.000226748
0.000226752
0.000226636
0.000226162
0.000225069
0.000223941
0.000222882
0.00022196
0.000221252
0.000220778
0.000220614
0.000220839
0.00022149
0.000222487
0.000223352
0.000223864
0.000224282
0.000224731
0.000225188
0.000225706
0.000226126
0.000226456
0.000227189
0.000228061
0.00022868
0.000229859
0.000231599
0.000234765
0.000239853
0.000252986
0.000281361
0.000327598
0.000357711
0.000367341
0.000354245
0.000327268
0.000303395
0.000283555
0.000266034
0.000251455
0.000239609
0.000230679
0.000224032
0.000219337
0.000124615
0.000176767
0.000196613
0.00020434
0.000207985
0.000209988
0.000211214
0.000212024
0.000212592
0.000213012
0.000213346
0.000213628
0.000213882
0.000214125
0.000214366
0.000214611
0.000214864
0.000215127
0.000215404
0.000215697
0.000216008
0.000216339
0.000216695
0.00021708
0.000217497
0.000217918
0.000218332
0.000218738
0.000219138
0.000219532
0.000219922
0.000220307
0.00022069
0.000221071
0.000221448
0.000221821
0.000222191
0.000222555
0.000222915
0.000223233
0.000223453
0.000223586
0.000223641
0.000223624
0.000223529
0.000223374
0.000223177
0.000223015
0.000222935
0.000222911
0.000222937
0.000223012
0.00022313
0.000223285
0.000223474
0.000223695
0.000223948
0.00022423
0.000224533
0.000224847
0.000225157
0.000225451
0.000225711
0.000225921
0.000226087
0.000226212
0.000226286
0.000226294
0.000226204
0.000225754
0.000224842
0.000223826
0.000222833
0.000221896
0.000221134
0.000220685
0.000220636
0.000220971
0.000221588
0.000222344
0.000223059
0.0002236
0.000224076
0.000224572
0.000225096
0.000225658
0.000226232
0.000226846
0.000227656
0.000228505
0.000229405
0.000230663
0.000232178
0.00023494
0.000239095
0.000250082
0.00027664
0.000326036
0.000361595
0.000362252
0.000356781
0.000330458
0.000306443
0.000287403
0.000270034
0.00025474
0.000241684
0.000231558
0.000224276
0.000219389
0.000124604
0.000176837
0.000196706
0.000204458
0.000208124
0.000210141
0.000211376
0.000212191
0.000212762
0.000213184
0.000213517
0.000213799
0.000214054
0.000214298
0.00021454
0.000214787
0.000215042
0.000215309
0.000215589
0.000215885
0.000216199
0.000216533
0.000216892
0.000217278
0.000217695
0.000218124
0.000218544
0.000218956
0.000219362
0.000219761
0.000220155
0.000220543
0.000220928
0.000221308
0.000221686
0.00022206
0.000222431
0.000222796
0.000223154
0.000223483
0.000223709
0.000223843
0.000223898
0.000223883
0.000223805
0.000223679
0.000223527
0.000223383
0.000223281
0.000223231
0.00022323
0.00022328
0.000223377
0.000223518
0.000223699
0.000223917
0.000224169
0.000224451
0.000224753
0.000225066
0.000225375
0.000225656
0.000225892
0.000226083
0.00022623
0.00022633
0.000226374
0.000226318
0.000226029
0.000225489
0.000224774
0.000223996
0.000223213
0.000222476
0.000221887
0.000221557
0.000221528
0.000221774
0.000222254
0.000222912
0.000223609
0.000224163
0.000224643
0.000225127
0.000225645
0.000226216
0.000226839
0.000227528
0.000228399
0.000229361
0.000230487
0.000231874
0.000233452
0.000235813
0.000239335
0.000248143
0.000271272
0.000315007
0.000349287
0.000350181
0.000354839
0.000329513
0.000306142
0.000288381
0.000272287
0.000257465
0.000244261
0.0002336
0.000225564
0.000219894
0.000124589
0.000176915
0.000196814
0.000204596
0.000208284
0.000210316
0.000211557
0.000212375
0.000212946
0.000213366
0.000213697
0.000213978
0.000214232
0.000214475
0.000214719
0.000214968
0.000215226
0.000215496
0.00021578
0.000216079
0.000216397
0.000216736
0.000217098
0.000217486
0.000217903
0.000218338
0.000218764
0.000219183
0.000219594
0.000219999
0.000220398
0.000220791
0.000221179
0.000221562
0.00022194
0.000222313
0.00022268
0.000223042
0.000223382
0.000223641
0.000223825
0.00022394
0.000223994
0.000223994
0.000223948
0.000223869
0.000223774
0.000223683
0.000223618
0.00022359
0.000223603
0.000223658
0.000223752
0.000223884
0.000224048
0.000224242
0.000224462
0.000224703
0.000224958
0.000225216
0.000225468
0.000225702
0.000225906
0.000226069
0.000226182
0.000226233
0.000226199
0.000226056
0.00022578
0.000225356
0.000224805
0.000224187
0.000223561
0.000222983
0.000222531
0.000222268
0.000222202
0.00022232
0.000222619
0.000223076
0.000223634
0.000224213
0.000224745
0.000225267
0.000225823
0.000226437
0.000227119
0.000227886
0.00022881
0.000229822
0.000231015
0.000232429
0.000234046
0.000236223
0.000239368
0.000246784
0.00026588
0.000303591
0.000334368
0.000334995
0.000349929
0.000326675
0.000303425
0.000287233
0.000273001
0.000259312
0.000246268
0.000235197
0.000226529
0.000220275
0.000124566
0.000177001
0.000196937
0.000204753
0.000208464
0.000210509
0.000211757
0.000212576
0.000213145
0.000213562
0.00021389
0.000214168
0.000214421
0.000214665
0.00021491
0.000215161
0.000215423
0.000215696
0.000215984
0.000216288
0.00021661
0.000216953
0.000217318
0.000217708
0.000218127
0.000218566
0.000218999
0.000219424
0.000219842
0.000220253
0.000220658
0.000221057
0.000221451
0.000221839
0.000222222
0.0002226
0.000222973
0.000223339
0.000223699
0.000224036
0.000224291
0.00022447
0.000224579
0.000224627
0.000224623
0.000224579
0.000224511
0.000224438
0.000224379
0.000224348
0.000224352
0.000224393
0.000224471
0.000224583
0.000224726
0.000224895
0.000225088
0.0002253
0.000225522
0.000225748
0.000225968
0.000226172
0.000226349
0.000226488
0.000226578
0.000226604
0.000226549
0.000226394
0.000226123
0.000225737
0.000225262
0.000224741
0.00022422
0.000223751
0.000223393
0.00022319
0.000223148
0.000223267
0.000223548
0.000223982
0.000224528
0.000225064
0.000225566
0.000226078
0.000226637
0.000227265
0.000227972
0.000228777
0.000229741
0.000230806
0.000232048
0.000233486
0.000235142
0.000237098
0.000239877
0.000245968
0.000261529
0.00029353
0.000323576
0.000324106
0.000343386
0.000321885
0.000298275
0.000283349
0.000271426
0.000259722
0.00024761
0.000236677
0.00022759
0.000220739
0.000124536
0.000177095
0.000197074
0.000204926
0.000208661
0.00021072
0.000211975
0.000212794
0.00021336
0.000213773
0.000214098
0.000214374
0.000214626
0.000214871
0.000215118
0.000215372
0.000215636
0.000215913
0.000216205
0.000216513
0.00021684
0.000217187
0.000217556
0.000217949
0.000218369
0.000218812
0.000219253
0.000219686
0.000220112
0.000220531
0.000220944
0.000221351
0.000221752
0.000222148
0.000222538
0.000222922
0.000223301
0.000223673
0.000224037
0.000224351
0.000224594
0.000224773
0.000224895
0.000224968
0.000225002
0.000225008
0.000224998
0.000224984
0.000224978
0.000224991
0.000225028
0.000225094
0.000225189
0.000225311
0.000225458
0.000225627
0.000225814
0.000226014
0.00022622
0.000226426
0.000226622
0.000226798
0.000226944
0.000227049
0.000227102
0.00022709
0.000227002
0.000226827
0.000226562
0.000226215
0.000225807
0.000225365
0.000224927
0.000224534
0.000224227
0.000224033
0.000223963
0.000224021
0.000224214
0.000224537
0.000224966
0.000225453
0.000225948
0.000226459
0.000227018
0.000227651
0.00022837
0.000229197
0.000230174
0.000231282
0.000232563
0.000234044
0.00023568
0.000237559
0.000240074
0.000245241
0.00025795
0.000284697
0.000312604
0.000313131
0.000335713
0.000315352
0.000291604
0.000277155
0.000267444
0.000258397
0.000247962
0.00023775
0.000228532
0.000221194
0.000124495
0.000177198
0.000197225
0.000205115
0.000208875
0.000210949
0.00021221
0.000213031
0.000213593
0.000214003
0.000214324
0.000214599
0.000214851
0.000215096
0.000215344
0.0002156
0.000215867
0.000216148
0.000216444
0.000216757
0.000217088
0.000217441
0.000217815
0.000218213
0.000218636
0.000219085
0.000219534
0.000219977
0.000220413
0.000220842
0.000221264
0.000221681
0.000222091
0.000222496
0.000222894
0.000223287
0.000223674
0.000224054
0.000224427
0.000224769
0.000225047
0.000225266
0.000225431
0.00022555
0.000225631
0.000225684
0.000225718
0.000225745
0.000225774
0.000225814
0.000225871
0.000225949
0.00022605
0.000226172
0.000226313
0.000226472
0.000226643
0.000226822
0.000227004
0.000227181
0.000227347
0.000227492
0.000227607
0.000227684
0.000227712
0.000227683
0.000227588
0.000227419
0.000227177
0.00022687
0.000226512
0.000226126
0.000225744
0.0002254
0.000225125
0.000224943
0.000224869
0.000224914
0.000225084
0.000225373
0.000225764
0.000226221
0.000226694
0.000227196
0.000227757
0.000228398
0.000229133
0.000229976
0.00023096
0.0002321
0.00023339
0.000234842
0.00023634
0.000238137
0.000240349
0.00024471
0.000255198
0.000277946
0.000305404
0.000306007
0.000328101
0.000308443
0.000284704
0.00027006
0.000261645
0.000255621
0.000247264
0.000238291
0.000229367
0.00022166
0.000124445
0.000177309
0.000197389
0.00020532
0.000209106
0.000211196
0.000212465
0.000213287
0.000213847
0.000214253
0.000214571
0.000214843
0.000215094
0.000215339
0.000215589
0.000215847
0.000216117
0.000216402
0.000216703
0.000217022
0.00021736
0.000217719
0.0002181
0.000218505
0.000218934
0.000219389
0.000219849
0.000220303
0.000220749
0.000221189
0.000221623
0.00022205
0.000222471
0.000222886
0.000223296
0.000223699
0.000224095
0.000224485
0.000224868
0.00022523
0.000225537
0.000225791
0.000225996
0.000226158
0.000226285
0.000226386
0.000226468
0.00022654
0.00022661
0.000226685
0.00022677
0.00022687
0.000226985
0.000227115
0.00022726
0.000227416
0.00022758
0.000227747
0.000227912
0.00022807
0.000228213
0.000228333
0.000228424
0.000228476
0.000228484
0.000228443
0.000228339
0.000228168
0.000227934
0.000227643
0.000227311
0.000226961
0.000226616
0.000226302
0.000226046
0.000225867
0.000225783
0.000225805
0.000225937
0.000226175
0.000226504
0.000226905
0.000227337
0.000227815
0.00022836
0.000228992
0.000229725
0.000230569
0.000231548
0.000232702
0.000233958
0.000235344
0.000236717
0.000238464
0.000240389
0.00024415
0.00025304
0.000272837
0.000299719
0.000300413
0.00032165
0.000302134
0.000277079
0.000262911
0.000256474
0.000252096
0.000245922
0.00023839
0.000230003
0.000222111
0.000124384
0.000177427
0.000197566
0.000205538
0.000209353
0.000211461
0.00021274
0.000213563
0.000214121
0.000214524
0.000214838
0.000215107
0.000215356
0.000215601
0.000215851
0.000216112
0.000216387
0.000216677
0.000216985
0.000217311
0.000217657
0.000218025
0.000218415
0.000218829
0.000219267
0.000219729
0.000220201
0.000220666
0.000221125
0.000221577
0.000222023
0.000222462
0.000222896
0.000223323
0.000223744
0.000224159
0.000224567
0.000224969
0.000225363
0.000225747
0.000226088
0.000226381
0.000226628
0.000226837
0.000227012
0.000227161
0.00022729
0.000227406
0.000227516
0.000227626
0.00022774
0.000227862
0.000227993
0.000228134
0.000228282
0.000228437
0.000228594
0.00022875
0.0002289
0.000229038
0.00022916
0.000229257
0.000229323
0.000229353
0.000229345
0.000229289
0.000229177
0.000229009
0.000228784
0.000228511
0.000228204
0.000227879
0.000227556
0.000227258
0.000227008
0.000226825
0.000226726
0.000226722
0.000226819
0.000227013
0.000227291
0.000227644
0.000228042
0.000228496
0.000229023
0.000229639
0.000230358
0.000231185
0.000232132
0.000233232
0.00023432
0.000235619
0.000236833
0.000238488
0.000240151
0.000243534
0.000251451
0.000269498
0.000295335
0.000296223
0.000316738
0.000297133
0.000270045
0.000256802
0.000252135
0.000248991
0.000244349
0.000238147
0.000230417
0.000222525
0.000124311
0.000177555
0.000197756
0.000205771
0.000209618
0.000211747
0.000213036
0.000213862
0.000214417
0.000214814
0.000215123
0.000215387
0.000215634
0.00021588
0.000216133
0.000216398
0.000216679
0.000216976
0.000217292
0.000217627
0.000217984
0.000218362
0.000218763
0.000219187
0.000219636
0.000220108
0.000220593
0.000221071
0.000221542
0.000222007
0.000222467
0.00022292
0.000223367
0.000223808
0.000224243
0.000224671
0.000225093
0.000225507
0.000225915
0.000226314
0.000226694
0.000227028
0.000227322
0.000227578
0.000227802
0.000228
0.000228176
0.000228337
0.000228488
0.000228634
0.000228779
0.000228926
0.000229075
0.000229228
0.000229384
0.000229539
0.000229693
0.000229841
0.000229978
0.000230102
0.000230205
0.000230281
0.000230327
0.000230343
0.000230319
0.000230251
0.000230134
0.000229965
0.000229745
0.000229483
0.000229189
0.000228877
0.000228567
0.000228275
0.000228023
0.000227829
0.000227709
0.000227677
0.000227738
0.000227887
0.000228118
0.000228424
0.000228785
0.000229209
0.00022971
0.000230301
0.000230989
0.000231782
0.000232659
0.000233605
0.000234573
0.000235771
0.000236822
0.000238332
0.000239783
0.000242956
0.000250418
0.000267613
0.000292567
0.000293615
0.000312599
0.000293685
0.000264117
0.000253309
0.000248819
0.000246529
0.000242772
0.000237668
0.000230631
0.000222869
0.000124228
0.00017769
0.000197957
0.000206018
0.000209902
0.000212055
0.000213355
0.000214183
0.000214732
0.000215122
0.000215424
0.000215684
0.00021593
0.000216178
0.000216435
0.000216707
0.000216995
0.000217301
0.000217626
0.000217973
0.00021834
0.00021873
0.000219144
0.000219581
0.000220042
0.000220528
0.000221026
0.000221518
0.000222003
0.000222483
0.000222957
0.000223425
0.000223887
0.000224344
0.000224794
0.000225237
0.000225674
0.000226104
0.000226527
0.000226941
0.000227347
0.000227727
0.000228069
0.000228375
0.000228649
0.000228897
0.000229122
0.000229329
0.000229522
0.000229706
0.000229883
0.000230057
0.000230227
0.000230395
0.00023056
0.00023072
0.000230872
0.000231015
0.000231143
0.000231254
0.000231341
0.0002314
0.000231432
0.000231432
0.000231393
0.000231312
0.000231187
0.000231016
0.000230801
0.000230545
0.000230259
0.000229956
0.00022965
0.000229358
0.000229098
0.000228887
0.000228742
0.000228677
0.000228697
0.000228801
0.000228984
0.000229241
0.000229563
0.000229952
0.00023042
0.000230973
0.000231618
0.00023235
0.000233104
0.000233939
0.000234812
0.000235896
0.000236791
0.000238125
0.000239423
0.000242514
0.000249942
0.000266966
0.000291258
0.000292355
0.000308644
0.000291598
0.000261243
0.000251782
0.000246633
0.00024469
0.000241359
0.000237123
0.000230723
0.000223159
0.000124132
0.000177836
0.000198172
0.000206282
0.000210206
0.000212386
0.000213697
0.000214524
0.000215065
0.000215445
0.000215741
0.000215999
0.000216246
0.000216497
0.00021676
0.000217039
0.000217336
0.000217652
0.000217989
0.000218347
0.000218727
0.000219131
0.000219559
0.000220011
0.000220488
0.000220989
0.000221502
0.000222009
0.000222511
0.000223006
0.000223496
0.000223981
0.00022446
0.000224932
0.000225399
0.00022586
0.000226314
0.000226761
0.0002272
0.000227631
0.000228054
0.000228467
0.00022886
0.000229218
0.000229545
0.000229844
0.000230119
0.000230373
0.00023061
0.000230834
0.000231046
0.000231248
0.000231442
0.000231628
0.000231806
0.000231973
0.000232128
0.000232268
0.00023239
0.000232491
0.000232565
0.000232612
0.000232632
0.000232616
0.000232562
0.000232468
0.000232334
0.00023216
0.000231946
0.000231696
0.000231415
0.000231114
0.000230807
0.00023051
0.000230237
0.000230006
0.000229833
0.000229731
0.000229706
0.000229761
0.000229894
0.000230102
0.000230381
0.000230731
0.000231158
0.000231667
0.000232256
0.000232904
0.000233561
0.000234314
0.000235093
0.00023605
0.000236798
0.000237944
0.000239168
0.000242274
0.000249979
0.000267284
0.000291368
0.000292541
0.000308404
0.000291932
0.0002605
0.000251421
0.000245435
0.000243498
0.000240247
0.000236633
0.00023075
0.000223425
0.000124026
0.000177992
0.000198401
0.000206563
0.000210533
0.000212741
0.000214062
0.000214883
0.000215413
0.000215785
0.000216076
0.000216333
0.000216582
0.000216839
0.000217109
0.000217397
0.000217704
0.000218031
0.00021838
0.000218752
0.000219147
0.000219566
0.000220011
0.00022048
0.000220975
0.000221495
0.000222024
0.000222547
0.000223065
0.000223578
0.000224086
0.000224588
0.000225085
0.000225576
0.000226061
0.000226541
0.000227014
0.000227479
0.000227938
0.000228388
0.000228829
0.000229261
0.000229681
0.00023009
0.000230473
0.000230825
0.000231152
0.000231456
0.00023174
0.000232005
0.000232254
0.000232489
0.00023271
0.000232917
0.00023311
0.000233288
0.000233449
0.000233591
0.000233711
0.000233807
0.000233871
0.000233911
0.000233918
0.000233888
0.000233821
0.000233716
0.000233572
0.000233391
0.000233175
0.000232926
0.000232649
0.00023235
0.00023204
0.000231733
0.000231445
0.000231191
0.000230986
0.000230844
0.000230773
0.000230776
0.000230856
0.000231012
0.000231244
0.00023155
0.000231932
0.000232393
0.000232923
0.000233496
0.000234088
0.000234768
0.000235454
0.000236273
0.000236886
0.000237851
0.00023908
0.000242241
0.000250368
0.000268292
0.000292608
0.000293724
0.000308686
0.000293662
0.000261245
0.000252133
0.000245143
0.000242952
0.000239524
0.000236156
0.000230742
0.000223705
0.000123907
0.000178159
0.000198647
0.000206865
0.000210883
0.000213121
0.000214447
0.000215259
0.00021578
0.000216145
0.000216431
0.000216688
0.000216941
0.000217204
0.000217482
0.00021778
0.000218098
0.000218437
0.0002188
0.000219187
0.000219599
0.000220036
0.000220499
0.000220989
0.000221505
0.000222047
0.000222593
0.000223133
0.000223669
0.0002242
0.000224726
0.000225248
0.000225764
0.000226276
0.000226781
0.000227281
0.000227775
0.000228262
0.000228741
0.000229212
0.000229675
0.000230127
0.000230568
0.000230997
0.000231413
0.000231814
0.000232197
0.000232553
0.000232885
0.000233194
0.000233482
0.000233752
0.000234002
0.000234233
0.000234446
0.000234639
0.00023481
0.000234959
0.00023508
0.00023517
0.000235236
0.000235273
0.000235275
0.000235239
0.000235162
0.000235046
0.000234893
0.000234704
0.000234482
0.00023423
0.000233953
0.000233656
0.000233343
0.000233027
0.000232721
0.000232442
0.000232205
0.000232022
0.000231902
0.000231852
0.000231876
0.000231977
0.000232155
0.000232413
0.000232749
0.000233162
0.000233639
0.000234157
0.000234703
0.000235322
0.000235924
0.000236616
0.000237105
0.000237914
0.000239192
0.000242444
0.000250954
0.000269428
0.00029388
0.000294934
0.000310342
0.000297447
0.000263739
0.000253389
0.000245376
0.000242533
0.000238981
0.000235579
0.000230666
0.000223996
0.000123777
0.000178335
0.000198908
0.00020719
0.000211259
0.000213525
0.000214851
0.000215654
0.000216169
0.000216525
0.000216806
0.000217064
0.000217322
0.000217592
0.00021788
0.000218188
0.000218519
0.000218873
0.000219251
0.000219655
0.000220085
0.000220542
0.000221027
0.00022154
0.00022208
0.000222645
0.000223208
0.000223767
0.000224322
0.000224872
0.000225419
0.000225961
0.000226499
0.000227032
0.000227559
0.000228082
0.000228598
0.000229108
0.000229611
0.000230106
0.000230591
0.000231067
0.000231531
0.000231982
0.000232419
0.00023284
0.000233245
0.000233631
0.000233997
0.000234342
0.000234665
0.000234965
0.00023524
0.000235491
0.000235716
0.000235915
0.000236087
0.000236232
0.00023635
0.00023645
0.000236535
0.000236596
0.000236622
0.000236604
0.000236542
0.000236434
0.000236282
0.000236089
0.000235861
0.000235604
0.000235323
0.000235023
0.000234709
0.000234387
0.000234066
0.000233762
0.000233491
0.000233266
0.000233097
0.000232993
0.000232959
0.000233001
0.000233121
0.000233324
0.00023361
0.000233979
0.000234414
0.000234897
0.000235409
0.000235982
0.000236514
0.000237108
0.000237494
0.000238219
0.000239588
0.000242996
0.000251701
0.000270147
0.000293805
0.000295055
0.000313747
0.000303617
0.000268442
0.000254964
0.000245977
0.000242031
0.000238185
0.000234677
0.000230228
0.000224176
0.000123632
0.000178517
0.000199181
0.00020754
0.000211662
0.000213949
0.000215277
0.000216076
0.000216578
0.000216923
0.000217202
0.000217461
0.000217725
0.000218004
0.000218303
0.000218623
0.000218968
0.000219338
0.000219733
0.000220156
0.000220607
0.000221086
0.000221595
0.000222134
0.000222703
0.000223288
0.00022387
0.000224449
0.000225023
0.000225595
0.000226163
0.000226727
0.000227288
0.000227844
0.000228395
0.000228942
0.000229484
0.000230019
0.000230548
0.000231068
0.00023158
0.00023208
0.00023257
0.000233045
0.000233506
0.00023395
0.000234375
0.000234781
0.000235165
0.000235526
0.000235863
0.000236175
0.00023646
0.000236719
0.00023695
0.000237152
0.000237326
0.000237471
0.000237589
0.000237693
0.000237781
0.00023785
0.000237895
0.000237904
0.000237872
0.000237797
0.000237675
0.000237506
0.00023729
0.000237035
0.00023675
0.000236446
0.000236127
0.0002358
0.000235469
0.000235145
0.000234843
0.000234577
0.000234359
0.000234201
0.000234108
0.000234088
0.000234147
0.000234289
0.000234519
0.00023484
0.000235244
0.000235707
0.000236201
0.000236737
0.000237208
0.000237758
0.000238089
0.00023885
0.000240343
0.000243946
0.000252582
0.000270236
0.000292122
0.000293588
0.00031903
0.000312157
0.000275773
0.000256447
0.000246567
0.000241671
0.000237318
0.000233509
0.000229338
0.000223942
0.000123471
0.000178707
0.000199468
0.000207919
0.000212093
0.000214396
0.000215729
0.000216521
0.000217005
0.00021734
0.000217617
0.000217881
0.000218152
0.000218441
0.000218751
0.000219086
0.000219446
0.000219833
0.000220247
0.000220691
0.000221165
0.000221669
0.000222206
0.000222774
0.000223373
0.000223977
0.000224579
0.000225178
0.000225774
0.000226367
0.000226958
0.000227545
0.000228129
0.00022871
0.000229288
0.000229861
0.00023043
0.000230993
0.000231549
0.000232098
0.000232638
0.000233167
0.000233684
0.000234186
0.000234673
0.000235142
0.000235591
0.000236018
0.000236422
0.000236801
0.000237154
0.00023748
0.000237778
0.000238046
0.000238284
0.000238491
0.000238668
0.000238813
0.000238936
0.000239043
0.000239133
0.000239203
0.00023925
0.000239266
0.000239239
0.000239171
0.000239061
0.000238908
0.000238716
0.000238484
0.000238214
0.000237912
0.000237589
0.000237255
0.000236916
0.000236579
0.000236253
0.00023595
0.000235686
0.000235474
0.000235323
0.000235241
0.000235235
0.000235313
0.000235481
0.000235745
0.000236109
0.000236562
0.000237051
0.000237571
0.000237995
0.000238565
0.000238913
0.000239825
0.000241447
0.000245225
0.000253528
0.000269746
0.000289675
0.000291215
0.000325557
0.000321616
0.000283505
0.00025727
0.000247741
0.000241666
0.000236905
0.000232656
0.000228566
0.000223642
0.000123294
0.00017891
0.00019977
0.000208323
0.000212543
0.000214875
0.000216213
0.000216983
0.000217448
0.000217776
0.000218054
0.000218323
0.000218603
0.000218903
0.000219226
0.000219576
0.000219953
0.000220358
0.000220794
0.000221261
0.000221761
0.000222293
0.00022286
0.000223461
0.000224087
0.000224711
0.000225332
0.000225952
0.00022657
0.000227186
0.0002278
0.000228412
0.000229021
0.000229629
0.000230233
0.000230835
0.000231432
0.000232025
0.000232612
0.000233191
0.000233762
0.000234322
0.00023487
0.000235403
0.000235919
0.000236416
0.000236891
0.000237344
0.000237771
0.000238172
0.000238545
0.000238888
0.0002392
0.000239481
0.000239729
0.000239944
0.000240125
0.000240274
0.000240404
0.000240516
0.00024061
0.000240684
0.000240732
0.00024075
0.000240722
0.000240648
0.000240531
0.000240374
0.00024018
0.000239954
0.000239694
0.000239405
0.000239086
0.000238747
0.000238398
0.000238047
0.000237703
0.000237373
0.00023707
0.000236808
0.0002366
0.000236456
0.000236386
0.000236398
0.000236499
0.000236701
0.000237009
0.000237425
0.000237912
0.000238455
0.000238872
0.000239522
0.000239947
0.000241073
0.000242802
0.000246699
0.000254542
0.000269094
0.000287514
0.000289018
0.000333481
0.000331171
0.000288998
0.00025778
0.000249645
0.000241993
0.000237241
0.000232465
0.000228303
0.000223557
0.000123102
0.000179132
0.000200093
0.000208751
0.000213026
0.000215386
0.000216717
0.000217458
0.000217908
0.000218231
0.000218511
0.000218787
0.000219077
0.000219389
0.000219727
0.000220093
0.000220489
0.000220916
0.000221375
0.000221868
0.000222395
0.000222959
0.00022356
0.000224197
0.000224842
0.000225486
0.000226128
0.000226769
0.000227409
0.000228048
0.000228686
0.000229323
0.000229958
0.000230593
0.000231226
0.000231857
0.000232486
0.00023311
0.00023373
0.000234343
0.000234948
0.000235543
0.000236125
0.000236692
0.000237242
0.000237772
0.000238279
0.000238761
0.000239217
0.000239644
0.00024004
0.000240405
0.000240736
0.000241033
0.000241294
0.00024152
0.000241708
0.000241867
0.000242005
0.000242125
0.000242226
0.000242305
0.000242357
0.000242377
0.000242346
0.000242263
0.000242132
0.000241957
0.000241745
0.000241501
0.00024123
0.000240935
0.000240616
0.000240272
0.000239912
0.000239545
0.00023918
0.000238826
0.000238491
0.000238187
0.000237929
0.000237727
0.000237594
0.000237539
0.000237573
0.000237706
0.000237947
0.000238303
0.00023875
0.000239323
0.000239798
0.000240592
0.000241136
0.000242491
0.0002443
0.000248258
0.000255753
0.000269057
0.000287079
0.000288487
0.000345891
0.000341264
0.000292781
0.000259614
0.000251951
0.000242971
0.000238319
0.000233028
0.00022869
0.000223848
0.000122893
0.000179377
0.000200438
0.000209194
0.000213547
0.000215932
0.000217233
0.000217947
0.000218384
0.000218706
0.00021899
0.000219275
0.000219576
0.000219902
0.000220255
0.000220639
0.000221056
0.000221505
0.00022199
0.000222511
0.00022307
0.000223669
0.000224308
0.000224972
0.000225636
0.000226299
0.000226961
0.000227623
0.000228285
0.000228947
0.000229608
0.000230271
0.000230933
0.000231596
0.000232259
0.000232922
0.000233583
0.000234242
0.000234898
0.000235549
0.000236193
0.000236827
0.00023745
0.000238057
0.000238646
0.000239215
0.00023976
0.000240278
0.000240768
0.000241227
0.000241653
0.000242044
0.000242398
0.000242715
0.000242993
0.000243231
0.00024343
0.000243603
0.000243752
0.000243884
0.000243996
0.000244083
0.000244141
0.000244164
0.000244132
0.000244037
0.000243886
0.000243687
0.000243445
0.00024317
0.000242867
0.000242544
0.000242203
0.000241843
0.000241464
0.000241075
0.000240684
0.000240301
0.000239934
0.000239593
0.000239289
0.000239035
0.000238843
0.000238725
0.00023869
0.00023875
0.000238916
0.000239199
0.000239589
0.000240157
0.000240677
0.000241669
0.0002424
0.000243989
0.000245897
0.000249921
0.000257317
0.000270048
0.000288059
0.000289483
0.000361944
0.000352945
0.000300032
0.00026358
0.000254315
0.000244995
0.000239946
0.000234159
0.000229558
0.000224455
0.000122668
0.000179647
0.000200808
0.000209671
0.000214101
0.000216497
0.00021776
0.00021845
0.000218878
0.000219199
0.00021949
0.000219784
0.000220098
0.000220439
0.00022081
0.000221214
0.000221653
0.000222127
0.00022264
0.000223193
0.000223787
0.000224423
0.0002251
0.000225782
0.000226463
0.000227144
0.000227825
0.000228507
0.00022919
0.000229874
0.000230559
0.000231247
0.000231937
0.000232629
0.000233323
0.00023402
0.000234718
0.000235416
0.000236113
0.000236808
0.000237497
0.000238178
0.000238848
0.000239504
0.000240141
0.000240757
0.000241349
0.000241911
0.000242443
0.00024294
0.0002434
0.000243822
0.000244204
0.000244544
0.000244841
0.000245095
0.00024531
0.000245497
0.000245662
0.000245808
0.000245934
0.000246034
0.0002461
0.00024613
0.000246097
0.000245988
0.000245813
0.00024558
0.000245301
0.000244982
0.000244635
0.000244265
0.000243881
0.000243483
0.000243071
0.000242648
0.000242221
0.000241801
0.000241394
0.000241012
0.000240663
0.000240358
0.00024011
0.00023993
0.000239828
0.000239814
0.000239901
0.000240107
0.000240435
0.000240979
0.000241534
0.000242637
0.000243594
0.000245442
0.000247556
0.000251745
0.000259232
0.000271778
0.000289637
0.000291364
0.000373981
0.000365633
0.000310248
0.00027117
0.000257371
0.00024767
0.000241751
0.000235431
0.000230649
0.000225238
0.000122425
0.000179944
0.000201198
0.000210187
0.000214691
0.000217071
0.000218298
0.000218968
0.000219389
0.000219712
0.00022001
0.000220316
0.000220644
0.000221001
0.000221392
0.000221817
0.00022228
0.000222782
0.000223326
0.000223913
0.000224545
0.000225224
0.000225922
0.000226619
0.000227316
0.000228013