/*--------------------------------*- C++ -*----------------------------------*\
| =========                 |                                                 |
| \\      /  F ield         | OpenFOAM: The Open Source CFD Toolbox           |
|  \\    /   O peration     | Version:  v2106                                 |
|   \\  /    A nd           | Website:  www.openfoam.com                      |
|    \\/     M anipulation  |                                                 |
\*---------------------------------------------------------------------------*/
FoamFile
{
    version     2.0;
    format      ascii;
    arch        "LSB;label=32;scalar=64";
    class       volScalarField;
    location    "1.6";
    object      nut;
}
// * * * * * * * * * * * * * * * * * * * * * * * * * * * * * * * * * * * * * //

dimensions      [0 2 -1 0 0 0 0];

internalField   nonuniform List<scalar> 
29678
(
6.40944e-06
0.000118779
0.000323057
0.000591828
0.000860761
0.00108383
0.00124461
0.00134806
0.00140846
0.00144084
0.00128603
0.00111493
0.000967337
0.000841251
0.000733364
0.000640872
0.000561345
0.000492694
0.000433159
0.000381258
0.000335729
0.000295505
0.000259691
0.000227529
0.000198359
0.000171602
0.00014675
0.000123371
0.000101197
8.01365e-05
6.01674e-05
4.1409e-05
1.8049e-05
1.6247e-05
1.78077e-05
4.48586e-05
7.16207e-05
0.000103129
0.000141062
0.00018707
0.00024423
0.000326424
0.000451522
0.000657978
0.00113124
0.00114102
0.00115013
0.00115881
0.000745381
0.0005412
0.000430847
0.000355222
0.000301034
0.000263325
0.000234631
0.000211281
0.000190324
0.000172706
0.000158112
0.000145789
0.000136895
0.000130358
0.00012479
0.000120411
0.000116757
0.000112603
0.000107879
9.89247e-05
1.90003e-05
2.11272e-05
2.15353e-05
2.07437e-05
2.18462e-05
2.32141e-05
2.41078e-05
2.46937e-05
2.47988e-05
2.47966e-05
2.57387e-05
2.76208e-05
2.9524e-05
3.10899e-05
3.25932e-05
3.45555e-05
3.75745e-05
4.1093e-05
4.82096e-05
5.86834e-05
5.76295e-05
5.27112e-05
5.91226e-05
6.86811e-05
6.17194e-05
4.85772e-05
4.86833e-05
5.26949e-05
6.72832e-05
3.64965e-05
2.75338e-05
3.79548e-05
6.52364e-05
7.71402e-05
8.32901e-05
7.04828e-05
7.47388e-05
5.79295e-05
6.14538e-05
1.45211e-05
0.000141323
9.13437e-06
6.4163e-06
0.000118861
0.000323341
0.000592312
0.000861339
0.00108439
0.0012451
0.00134844
0.00127138
0.00109668
0.000946516
0.000819135
0.000710609
0.00061813
0.000539271
0.000471833
0.000413886
0.00036385
0.000320429
0.000282543
0.00024929
0.000219919
0.000193808
0.000170439
0.000149385
0.000130291
0.000112932
9.72506e-05
8.34014e-05
7.16076e-05
6.12758e-05
4.99214e-05
3.50445e-05
2.61039e-05
3.39204e-05
5.31919e-05
7.95743e-05
0.000109427
0.000144965
0.000188822
0.000247525
0.000336489
0.000487061
0.000812355
0.00116521
0.00117292
0.00118062
0.000759039
0.000524631
0.000399306
0.000325184
0.000272902
0.000235293
0.000208108
0.000186966
0.000169688
0.000154457
0.000141757
0.000131079
0.00012226
0.000115791
0.000110733
0.000106539
0.000103259
0.00010059
9.88961e-05
0.0001004
0.000111076
0.000132114
0.000182667
0.000272326
0.000233372
0.000259364
0.000263656
0.00025465
0.000262664
0.000286408
0.000364308
0.000476848
0.000312299
0.000184722
0.000136808
0.000122449
0.000133739
0.000183429
0.000347595
0.000649939
0.000327945
0.000185203
0.000200337
0.000299544
0.000179696
0.000137316
9.16378e-05
5.47552e-05
4.13412e-05
4.26347e-05
5.09371e-05
2.28487e-05
4.10281e-05
0.000101617
4.89156e-05
7.74454e-05
5.24182e-05
6.04659e-05
4.52818e-05
4.16428e-05
3.61018e-05
5.00416e-05
5.99849e-05
6.41531e-06
0.000118982
0.000323744
0.000593004
0.00086217
0.00108519
0.0012458
0.001349
0.00122149
0.00104919
0.000904606
0.000783568
0.00068099
0.000593806
0.000519445
0.000455741
0.000400885
0.000353404
0.000312103
0.000275996
0.000244265
0.000216228
0.000191324
0.000169088
0.000149135
0.000131138
0.000114846
0.00010004
8.64151e-05
7.34903e-05
6.1182e-05
5.10321e-05
4.58328e-05
4.97079e-05
5.71801e-05
6.54012e-05
7.90293e-05
9.68972e-05
0.000119133
0.000146462
0.000180933
0.000227282
0.000293668
0.000397165
0.000595038
0.00110668
0.00120847
0.00121547
0.000764303
0.000533178
0.000414465
0.000340719
0.000289778
0.000252999
0.000225236
0.000203321
0.000185212
0.000170054
0.000157378
0.000146768
0.000138193
0.000131405
0.000125948
0.000121627
0.000118233
0.000115702
0.000114671
0.000116311
0.000134868
0.000210804
0.000301969
0.000283105
0.000288336
0.000308008
0.000317896
0.000323085
0.000327813
0.000328856
0.000301147
0.000245515
0.000199423
0.000175307
0.000169112
0.000178137
0.000207217
0.000256793
0.000295408
0.000249549
0.000205346
0.000217439
0.000256096
0.000190518
0.000158492
0.000113149
7.83019e-05
4.56592e-05
4.76012e-05
5.57082e-05
7.18976e-05
5.58585e-05
6.92649e-05
5.4959e-05
7.53827e-05
5.59824e-05
6.19274e-05
4.85574e-05
4.46177e-05
4.61246e-05
6.15371e-05
6.25009e-05
6.41187e-06
0.000119117
0.000324208
0.000593804
0.00086312
0.0010861
0.00124659
0.0013497
0.00123044
0.00105773
0.000913055
0.000791702
0.000688629
0.000600707
0.000525499
0.000460968
0.000405383
0.000357304
0.000315543
0.000279115
0.000247198
0.000219104
0.000194273
0.000172239
0.000152619
0.000135087
0.00011939
0.000105346
9.28337e-05
8.18675e-05
7.26994e-05
6.51567e-05
5.79499e-05
5.22061e-05
5.45294e-05
6.36975e-05
7.73586e-05
9.47405e-05
0.000116097
0.000142603
0.000176421
0.000221549
0.000284703
0.000379237
0.000531219
0.000753234
0.000914679
0.000807767
0.000613719
0.000472403
0.000380084
0.000317161
0.000271883
0.000238154
0.000212172
0.000191517
0.000174678
0.000160856
0.000149545
0.000140394
0.000133209
0.000127714
0.000123687
0.000121107
0.000120134
0.000121404
0.000126318
0.000138276
0.000162321
0.000200745
0.000228228
0.000233612
0.000241999
0.000251714
0.000257501
0.000258833
0.000258103
0.000255477
0.000244463
0.000220851
0.000195504
0.00017756
0.000170145
0.00017407
0.00018822
0.000209574
0.000222842
0.000213488
0.000190772
0.00017912
0.000172563
0.00014726
0.000127438
0.000101372
8.073e-05
5.90784e-05
5.71826e-05
9.03624e-05
8.52551e-05
8.56568e-05
7.23654e-05
8.12661e-05
7.81669e-05
6.23956e-05
6.51312e-05
5.53977e-05
5.05999e-05
4.8262e-05
5.18871e-05
4.55116e-05
6.40582e-06
0.000119268
0.000324723
0.000594683
0.000864136
0.00108705
0.00124746
0.00135053
0.00123298
0.00106175
0.000917227
0.000795458
0.000691846
0.00060336
0.000527635
0.000462686
0.000406807
0.000358559
0.000316743
0.000280367
0.000248604
0.000220768
0.000196291
0.000174709
0.000155637
0.000138751
0.000123793
0.000110592
9.90427e-05
8.91251e-05
8.09018e-05
7.45944e-05
7.1119e-05
7.21072e-05
7.83796e-05
8.90302e-05
0.000103175
0.000120859
0.000142823
0.000170326
0.000205483
0.000251759
0.000314511
0.000401384
0.000516907
0.000636309
0.000683317
0.000618211
0.000508951
0.000415507
0.000346929
0.000296996
0.000259689
0.000231128
0.000208733
0.000190789
0.000176178
0.000164211
0.000154447
0.000146589
0.000140455
0.0001359
0.000132828
0.000131202
0.000131176
0.000133106
0.0001379
0.00014658
0.000161368
0.000183457
0.000204272
0.000218193
0.000229184
0.000238518
0.000244244
0.000245632
0.000245005
0.000242507
0.000234165
0.00021945
0.00020375
0.000191591
0.0001862
0.000187905
0.000194815
0.000203063
0.000204685
0.000196232
0.000180667
0.000168709
0.000155986
0.000136599
0.000119403
9.45318e-05
7.64083e-05
5.72934e-05
5.44151e-05
9.49762e-05
0.000152611
0.000102176
8.57173e-05
9.67788e-05
7.806e-05
6.58274e-05
6.55598e-05
5.78752e-05
5.38156e-05
5.248e-05
5.57738e-05
4.7104e-05
6.39734e-06
0.000119436
0.000325288
0.000595615
0.000865158
0.00108801
0.00124842
0.00135152
0.0012213
0.00105446
0.00091244
0.000791898
0.00068898
0.000600977
0.000525644
0.000461049
0.000405512
0.000357615
0.000316172
0.000280205
0.000248908
0.000221599
0.000197702
0.000176748
0.000158352
0.000142194
0.000128012
0.00011564
0.000104977
9.59883e-05
8.87118e-05
8.32495e-05
7.98257e-05
7.88839e-05
8.1193e-05
8.6987e-05
9.60159e-05
0.000108157
0.00012356
0.000142688
0.000166339
0.000195706
0.0002322
0.00027679
0.000327703
0.000376442
0.000407957
0.000409654
0.000383264
0.000343847
0.000304662
0.000270821
0.000242861
0.000219995
0.00020125
0.000185777
0.000172934
0.000162275
0.000153495
0.000146379
0.000140785
0.000136613
0.000133815
0.000132363
0.000132478
0.000134514
0.000138963
0.000146907
0.000159246
0.000174466
0.000188947
0.000200301
0.000209016
0.000215241
0.000218102
0.000217617
0.000215211
0.000211312
0.000204745
0.0001953
0.000184902
0.000176108
0.000170892
0.000169481
0.000170608
0.000171814
0.000170425
0.000165249
0.000155938
0.000146844
0.000135847
0.0001227
0.000109233
9.45962e-05
7.92964e-05
6.42094e-05
5.93057e-05
9.89948e-05
0.000198976
0.000108509
9.02836e-05
0.000112629
8.05802e-05
6.75469e-05
6.94431e-05
6.13529e-05
5.97222e-05
5.70364e-05
5.73222e-05
4.60213e-05
6.38678e-06
0.000119624
0.000325896
0.000596567
0.000866123
0.00108895
0.00124953
0.00135276
0.00120086
0.00103959
0.000901363
0.000783193
0.000681929
0.000595186
0.000520858
0.000457094
0.000402272
0.00035504
0.000314265
0.000278988
0.000248405
0.000221827
0.000198664
0.000178437
0.000160764
0.000145334
0.000131897
0.000120285
0.000110398
0.000102194
9.57022e-05
9.10311e-05
8.84161e-05
8.8331e-05
9.1363e-05
9.75862e-05
0.000106808
0.000118974
0.000134229
0.000152867
0.000175334
0.000202082
0.000233141
0.000267229
0.000300441
0.000326194
0.000338444
0.000334975
0.000318067
0.000293613
0.000267627
0.000243529
0.000222482
0.000204563
0.000189461
0.000176776
0.000166147
0.000157295
0.000150017
0.00014417
0.000139659
0.000136433
0.000134462
0.000133807
0.00013464
0.000137194
0.000141603
0.000148275
0.000157164
0.000167631
0.000178051
0.000187096
0.000194302
0.000199436
0.000202253
0.000203029
0.000202504
0.000200864
0.00019761
0.000192668
0.000186898
0.000181525
0.000177496
0.000174961
0.000173211
0.000170897
0.000166844
0.000160211
0.000151031
0.000141163
0.000129752
0.000117136
0.000104373
9.1615e-05
7.86579e-05
6.62135e-05
6.07283e-05
9.75635e-05
0.000242528
0.000114519
9.81274e-05
0.000121059
8.60771e-05
6.69678e-05
7.45269e-05
6.39183e-05
6.53048e-05
6.24548e-05
6.16469e-05
4.83199e-05
6.37448e-06
0.00011983
0.000326542
0.000597495
0.000866977
0.00108991
0.00125091
0.00135435
0.00117699
0.00102083
0.000886452
0.000771001
0.000671793
0.000586655
0.000513608
0.000450933
0.000397128
0.000350899
0.000311142
0.00027687
0.000247231
0.000221526
0.000199173
0.0001797
0.000162737
0.000147996
0.000135237
0.000124296
0.000115067
0.000107502
0.000101611
9.74687e-05
9.52289e-05
9.51291e-05
9.74057e-05
0.00010213
0.000109246
0.000118695
0.00013049
0.000144694
0.000161365
0.000180452
0.00020153
0.000223435
0.00024399
0.000260288
0.000269728
0.00027093
0.000264199
0.000251633
0.000236168
0.000220217
0.000205173
0.000191642
0.000179787
0.00016956
0.000160843
0.000153512
0.000147462
0.000142612
0.000138907
0.000136317
0.000134786
0.000134406
0.000135303
0.000137427
0.000141055
0.000146297
0.000152997
0.000160683
0.000168454
0.000175475
0.000181247
0.00018543
0.000187837
0.000188588
0.000187984
0.000186137
0.000182984
0.000178702
0.000173846
0.000169094
0.000164924
0.000161434
0.000158272
0.000154756
0.000150274
0.000144447
0.000137146
0.00012882
0.000119441
0.000109322
9.90359e-05
8.91603e-05
7.81222e-05
6.82029e-05
6.00106e-05
8.83298e-05
0.000208389
0.000105806
0.000100863
0.000137859
9.33709e-05
7.02712e-05
8.29563e-05
7.00666e-05
7.23024e-05
6.92077e-05
6.67799e-05
5.109e-05
6.36083e-06
0.000120054
0.000327213
0.000598348
0.000867696
0.00109098
0.0012527
0.0013287
0.00115272
0.0010003
0.000869034
0.000755984
0.000658723
0.000575223
0.000503674
0.000442474
0.000390189
0.00034546
0.000307087
0.000274041
0.000245457
0.000220658
0.000199107
0.000180368
0.000164088
0.00014999
0.000137848
0.000127493
0.000118816
0.000111756
0.000106299
0.000102483
0.000100389
0.000100139
0.000101843
0.000105543
0.000111216
0.000118822
0.000128323
0.000139662
0.000152705
0.000167184
0.000182537
0.000197779
0.000211498
0.000222125
0.000228394
0.000229687
0.000226179
0.000218838
0.000209111
0.000198404
0.00018774
0.000177727
0.000168664
0.000160662
0.000153736
0.000147864
0.000143009
0.000139141
0.000136237
0.000134272
0.000133227
0.0001332
0.000134089
0.000136112
0.000139389
0.000143737
0.000149037
0.000154955
0.000160938
0.000166449
0.000171073
0.000174524
0.000176672
0.000177577
0.000177396
0.000176235
0.000174169
0.000171362
0.000168094
0.000164648
0.000161189
0.000157727
0.000154072
0.000149877
0.00014482
0.000138826
0.000131813
0.00012366
0.000114988
0.000105729
9.6554e-05
8.7842e-05
7.77035e-05
7.07239e-05
6.0229e-05
8.22637e-05
0.000160768
8.96701e-05
0.000103362
0.000154942
0.000106478
8.23071e-05
9.45762e-05
8.08431e-05
8.07364e-05
7.68773e-05
7.29542e-05
5.46648e-05
6.34628e-06
0.000120297
0.000327895
0.000599074
0.000868313
0.00109234
0.00125506
0.00130276
0.00112906
0.000978596
0.000849143
0.000737758
0.00064219
0.000560561
0.000491145
0.00043218
0.000382016
0.000339144
0.00030229
0.000270483
0.000242944
0.000219049
0.0001983
0.000180289
0.000164676
0.000151192
0.000139615
0.000129773
0.000121553
0.000114882
0.000109724
0.000106079
0.000103979
0.000103469
0.000104592
0.000107354
0.000111722
0.000117638
0.000125021
0.000133755
0.000143634
0.000154342
0.000165388
0.000176068
0.000185516
0.000192858
0.000197407
0.000198819
0.000197162
0.000192909
0.000186816
0.000179705
0.000172275
0.000165024
0.000158263
0.000152165
0.000146815
0.000142248
0.000138477
0.000135507
0.000133338
0.000131924
0.000131354
0.000131528
0.000132544
0.000134491
0.000137262
0.000140822
0.000145035
0.000149639
0.000154311
0.000158699
0.000162477
0.000165411
0.000167381
0.000168382
0.000168472
0.000167715
0.000166191
0.000164028
0.000161391
0.000158419
0.000155179
0.00015167
0.000147803
0.000143415
0.000138335
0.000132554
0.000126141
0.000118458
0.000110665
0.000102213
9.41059e-05
8.63183e-05
7.68142e-05
7.23276e-05
6.00807e-05
7.69038e-05
0.000124043
7.41254e-05
9.94082e-05
0.000149101
0.000136835
0.000111082
0.00011035
9.43185e-05
9.06731e-05
8.48019e-05
7.94738e-05
5.85298e-05
6.33129e-06
0.000120557
0.000328572
0.000599628
0.00086892
0.00109416
0.00125808
0.00127921
0.00110533
0.000954622
0.000825545
0.000715404
0.000622002
0.000543274
0.000476987
0.000420866
0.000373008
0.000331955
0.000296577
0.000266004
0.000239534
0.00021658
0.000196664
0.000179391
0.000164436
0.000151537
0.000140478
0.000131088
0.000123247
0.000116871
0.000111907
0.000108327
0.000106124
0.0001053
0.000105852
0.000107759
0.000110973
0.00011542
0.000121
0.000127574
0.00013494
0.000142798
0.000150763
0.000158346
0.000165006
0.000170225
0.000173607
0.000174947
0.000174267
0.000171814
0.000168003
0.000163318
0.00015822
0.000153079
0.000148162
0.000143646
0.000139641
0.000136213
0.0001334
0.000131228
0.000129711
0.000128812
0.000128524
0.000128882
0.000130027
0.000131842
0.000134303
0.000137345
0.000140838
0.000144598
0.000148402
0.000151999
0.00015516
0.000157706
0.000159524
0.000160569
0.000160844
0.000160381
0.000159245
0.000157534
0.000155348
0.000152753
0.000149768
0.000146382
0.000142549
0.000138193
0.000133247
0.000127649
0.000121783
0.000114452
0.000107336
9.95107e-05
9.22177e-05
8.50847e-05
7.61188e-05
7.35008e-05
6.01408e-05
7.31064e-05
0.000102098
6.29096e-05
9.08773e-05
0.000122857
0.000219502
0.000145406
0.000128497
0.000105701
9.98249e-05
9.18001e-05
8.57427e-05
6.23434e-05
6.31636e-06
0.000120834
0.00032923
0.00059998
0.000869639
0.00109661
0.00126177
0.00125589
0.00107887
0.00092583
0.000796731
0.000688946
0.000599381
0.000524783
0.000462005
0.000408614
0.00036292
0.000323645
0.000289791
0.000260536
0.000235207
0.000213241
0.00019418
0.000177651
0.000163342
0.000151002
0.000140422
0.000131431
0.000123907
0.000117757
0.000112915
0.000109331
0.000106975
0.000105817
0.00010583
0.000106971
0.000109181
0.00011238
0.000116461
0.000121288
0.00012668
0.000132395
0.000138133
0.000143559
0.000148323
0.000152104
0.000154661
0.000155864
0.000155716
0.000154351
0.000152005
0.000148972
0.00014555
0.000142003
0.000138541
0.000135321
0.00013245
0.000130004
0.000128035
0.00012658
0.000125632
0.000125146
0.000125143
0.000125804
0.000127016
0.000128768
0.000131026
0.000133719
0.000136728
0.000139915
0.000143115
0.000146152
0.000148866
0.000151123
0.000152824
0.000153908
0.000154346
0.000154145
0.000153343
0.000152004
0.00015018
0.0001479
0.000145164
0.000141959
0.000138263
0.000134045
0.000129307
0.000123917
0.000118497
0.000111522
0.000104939
9.76144e-05
9.08562e-05
8.41604e-05
7.56187e-05
7.40683e-05
5.98208e-05
6.99297e-05
8.84592e-05
5.78159e-05
8.20505e-05
0.000104658
0.000376021
0.000145864
0.000136958
0.000110559
0.000106229
9.66838e-05
9.11317e-05
6.57995e-05
6.30204e-06
0.000121128
0.000329863
0.000600143
0.000870572
0.00109976
0.00126608
0.00122813
0.00104517
0.000889825
0.000763059
0.000660247
0.000575882
0.000505445
0.000445854
0.000395048
0.000351569
0.000314205
0.00028199
0.000254135
0.000229997
0.000209049
0.000190859
0.000175074
0.000161401
0.0001496
0.000139467
0.000130836
0.000123584
0.000117613
0.000112845
0.00010922
0.000106689
0.000105206
0.000104726
0.000105196
0.000106549
0.000108705
0.000111561
0.000114992
0.000118847
0.000122938
0.000127048
0.000130935
0.000134366
0.000137137
0.000139092
0.000140145
0.000140292
0.000139606
0.000138227
0.000136335
0.000134125
0.00013178
0.000129458
0.000127286
0.000125359
0.000123751
0.000122512
0.000121688
0.000121235
0.000121068
0.000121431
0.000122279
0.000123575
0.000125308
0.000127443
0.000129914
0.000132626
0.000135463
0.000138289
0.00014097
0.000143391
0.000145452
0.000147076
0.0001482
0.000148785
0.000148814
0.000148301
0.000147274
0.000145754
0.000143748
0.000141252
0.000138255
0.000134749
0.000130724
0.000126222
0.000121063
0.000116023
0.00010943
0.000103292
9.64276e-05
8.99882e-05
8.36705e-05
7.54359e-05
7.43815e-05
5.9606e-05
6.77377e-05
8.26738e-05
5.70987e-05
7.55444e-05
9.82364e-05
0.000323358
0.000122697
0.000131064
0.000108193
0.000108746
9.90024e-05
9.52875e-05
6.8721e-05
6.28893e-06
0.000121437
0.000330471
0.000600196
0.000871796
0.00110358
0.00127084
0.00118869
0.00100018
0.00084709
0.000727027
0.000630712
0.000551224
0.000484579
0.000428202
0.000380191
0.000339101
0.000303772
0.00027327
0.000246864
0.000223954
0.000204046
0.000186738
0.000171699
0.000158653
0.000147374
0.000137665
0.000129365
0.000122354
0.000116531
0.000111813
0.000108132
0.000105428
0.000103645
0.000102731
0.000102624
0.000103259
0.000104556
0.000106423
0.000108752
0.000111418
0.000114277
0.000117172
0.000119939
0.000122414
0.000124455
0.000125961
0.000126873
0.000127184
0.000126935
0.000126209
0.00012512
0.000123794
0.000122358
0.000120927
0.0001196
0.000118457
0.000117559
0.000116952
0.000116732
0.00011656
0.000116795
0.000117454
0.000118472
0.00011987
0.000121625
0.000123703
0.00012605
0.000128589
0.000131223
0.000133839
0.000136326
0.000138587
0.000140544
0.000142136
0.000143313
0.000144033
0.000144271
0.000144016
0.00014327
0.00014203
0.000140288
0.000138037
0.000135269
0.000131982
0.000128176
0.000123912
0.000118986
0.000114271
0.00010803
0.000102246
9.58694e-05
8.9629e-05
8.37935e-05
7.56601e-05
7.47929e-05
6.00806e-05
6.64614e-05
8.37959e-05
5.67303e-05
7.01626e-05
9.65613e-05
0.000239215
0.000102555
0.00011746
0.000102432
0.000107722
9.91042e-05
9.80916e-05
7.10502e-05
6.27767e-06
0.000121758
0.000331037
0.00060027
0.000873408
0.00110801
0.00127581
0.00113019
0.000944277
0.000800743
0.000689536
0.000599387
0.000524669
0.000462148
0.000409304
0.000364277
0.000325689
0.000292468
0.000263731
0.000238814
0.000217155
0.000198303
0.000181882
0.000167588
0.000155161
0.000144391
0.000135087
0.000127101
0.000120312
0.000114621
0.000109944
0.000106206
0.000103345
0.0001013
0.000100013
9.94229e-05
9.94645e-05
0.000100065
0.000101144
0.000102609
0.00010436
0.000106287
0.000108273
0.000110202
0.000111965
0.000113467
0.000114636
0.000115427
0.00011583
0.000115869
0.000115595
0.000115081
0.00011441
0.000113668
0.000112939
0.000112296
0.000111802
0.000111512
0.000111481
0.000111598
0.000111794
0.000112389
0.000113283
0.000114491
0.000116008
0.000117819
0.000119894
0.000122187
0.00012464
0.000127174
0.000129696
0.000132109
0.000134323
0.000136268
0.000137889
0.000139145
0.000140003
0.000140435
0.00014042
0.000139938
0.000138971
0.000137497
0.000135503
0.000132981
0.000129933
0.000126361
0.000122331
0.000117633
0.000113182
0.000107209
0.000101682
9.58289e-05
8.98507e-05
8.46614e-05
7.64624e-05
7.55947e-05
6.15701e-05
6.58882e-05
9.06547e-05
5.5479e-05
6.70267e-05
9.86018e-05
0.000185195
8.95141e-05
0.000103755
9.69684e-05
0.000104402
9.79576e-05
9.96416e-05
7.28963e-05
6.26888e-06
0.00012208
0.000331503
0.000600489
0.000875556
0.00111296
0.00127006
0.00105262
0.00088204
0.000751792
0.000649352
0.000565737
0.000496521
0.000438535
0.000389425
0.000347506
0.000311506
0.000280435
0.000253503
0.000230093
0.000209699
0.000191907
0.000176374
0.000162819
0.000151006
0.000140733
0.000131823
0.000124137
0.000117561
0.000111997
0.00010736
0.000103579
0.000100586
9.83203e-05
9.67237e-05
9.57366e-05
9.52978e-05
9.53416e-05
9.57978e-05
9.6591e-05
9.76403e-05
9.8861e-05
0.000100167
0.000101474
0.000102705
0.000103795
0.000104694
0.000105372
0.000105821
0.000106053
0.000106099
0.000106004
0.000105824
0.000105616
0.000105438
0.000105345
0.000105383
0.000105592
0.000106069
0.000106417
0.000107001
0.000107865
0.000108998
0.000110397
0.000112054
0.000113955
0.000116074
0.000118375
0.000120809
0.000123315
0.00012582
0.00012824
0.000130494
0.000132509
0.000134226
0.000135608
0.000136623
0.00013725
0.000137464
0.000137239
0.000136543
0.000135346
0.000133625
0.000131368
0.000128577
0.000125254
0.000121461
0.000116998
0.00011274
0.000107006
0.000101684
9.63137e-05
9.07363e-05
8.61044e-05
7.79079e-05
7.69809e-05
6.42315e-05
6.61257e-05
0.000103048
5.40925e-05
6.59668e-05
0.000104877
0.000138003
8.45514e-05
9.22761e-05
9.44868e-05
0.000100301
9.68395e-05
0.000100207
7.44735e-05
6.2632e-06
0.000122398
0.00033181
0.000600954
0.000878394
0.00111824
0.00116
0.000965645
0.000815376
0.000699399
0.000606603
0.000530494
0.000467289
0.000414058
0.000368834
0.000330108
0.00029674
0.000267846
0.000242726
0.000220827
0.000201699
0.000184962
0.00017031
0.000157488
0.000146279
0.000136492
0.000127967
0.000120574
0.000114207
0.00010877
0.000104184
0.000100376
9.72804e-05
9.48387e-05
9.29931e-05
9.16878e-05
9.08666e-05
9.04714e-05
9.04422e-05
9.07165e-05
9.12298e-05
9.19169e-05
9.2713e-05
9.35569e-05
9.43934e-05
9.51763e-05
9.58712e-05
9.6457e-05
9.69273e-05
9.72895e-05
9.75634e-05
9.77783e-05
9.79701e-05
9.8178e-05
9.84414e-05
9.87982e-05
9.92838e-05
9.99514e-05
0.000100763
0.000101338
0.00010221
0.000103306
0.000104647
0.000106225
0.000108032
0.000110052
0.000112263
0.000114629
0.000117108
0.00011965
0.000122196
0.00012468
0.000127031
0.000129177
0.000131055
0.000132616
0.000133829
0.000134671
0.00013512
0.000135151
0.000134728
0.000133817
0.000132385
0.000130415
0.000127901
0.000124846
0.000121303
0.000117105
0.000112961
0.000107581
0.000102472
9.73409e-05
9.21655e-05
8.77463e-05
7.98727e-05
7.88781e-05
6.77648e-05
6.75818e-05
0.000121407
5.26586e-05
6.61561e-05
0.000115208
0.000103781
9.04435e-05
8.35836e-05
9.66719e-05
9.66196e-05
9.67927e-05
0.000100284
7.60188e-05
6.26122e-06
0.000122716
0.000331935
0.000601692
0.000881987
0.00112439
0.00103279
0.000873514
0.000745852
0.000644854
0.000562473
0.00049441
0.000437448
0.000389104
0.000347854
0.000312327
0.000281596
0.000254876
0.00023155
0.00021115
0.000193275
0.000177578
0.000163795
0.000151693
0.000141078
0.000131767
0.000123617
0.000116514
0.000110356
0.000105053
0.000100528
9.67138e-05
9.35473e-05
9.09717e-05
8.89328e-05
8.73791e-05
8.62599e-05
8.55241e-05
8.51207e-05
8.49982e-05
8.5105e-05
8.53904e-05
8.58056e-05
8.63055e-05
8.68505e-05
8.74082e-05
8.79546e-05
8.84757e-05
8.89671e-05
8.9434e-05
8.98893e-05
9.03522e-05
9.08457e-05
9.13952e-05
9.20262e-05
9.27636e-05
9.36312e-05
9.47038e-05
9.56519e-05
9.65049e-05
9.75757e-05
9.88712e-05
0.000100387
0.000102119
0.000104057
0.000106189
0.000108497
0.000110954
0.000113524
0.000116159
0.000118806
0.000121405
0.000123896
0.000126216
0.000128301
0.000130095
0.000131553
0.000132648
0.000133358
0.000133657
0.000133517
0.0001329
0.000131773
0.00013011
0.000127896
0.000125131
0.000121856
0.000117951
0.000113951
0.00010894
0.000104057
9.8857e-05
9.39334e-05
8.93683e-05
8.19893e-05
8.08629e-05
7.10208e-05
7.0309e-05
0.000144218
5.04989e-05
6.7585e-05
0.000129908
9.32937e-05
0.000116835
7.76311e-05
0.000105303
9.40319e-05
9.85219e-05
0.000100511
7.79146e-05
6.26364e-06
0.000123043
0.000331904
0.000602622
0.000885997
0.00105671
0.000907599
0.00078096
0.000675767
0.000589764
0.000518295
0.000458386
0.000407498
0.000364101
0.000326806
0.000294417
0.000266283
0.000241687
0.00022013
0.000201201
0.000184547
0.000169871
0.000156938
0.000145539
0.000135501
0.000126653
0.000118873
0.000112057
0.000106108
0.000100946
9.64971e-05
9.26981e-05
8.94901e-05
8.68201e-05
8.46376e-05
8.2896e-05
8.15499e-05
8.05549e-05
7.98675e-05
7.94454e-05
7.92471e-05
7.92331e-05
7.93666e-05
7.96147e-05
7.99494e-05
8.03484e-05
8.07958e-05
8.12826e-05
8.1807e-05
8.23728e-05
8.2989e-05
8.36676e-05
8.44227e-05
8.52691e-05
8.62216e-05
8.7295e-05
8.85277e-05
8.98707e-05
9.09412e-05
9.19763e-05
9.32105e-05
9.46572e-05
9.63137e-05
9.81747e-05
0.000100227
0.000102464
0.00010487
0.000107423
0.000110093
0.000112844
0.000115626
0.000118384
0.000121059
0.000123589
0.000125915
0.000127981
0.000129733
0.00013113
0.000132141
0.000132742
0.000132905
0.0001326
0.000131793
0.000130455
0.000128564
0.000126114
0.000123127
0.000119517
0.000115726
0.000110982
0.000106309
0.00010081
9.5909e-05
9.09757e-05
8.38109e-05
8.2276e-05
7.22231e-05
7.32994e-05
0.000171148
4.82781e-05
7.20986e-05
0.000144182
0.000104787
0.000160206
7.75533e-05
0.000119768
9.02596e-05
0.000101945
0.00010061
8.00722e-05
6.27125e-06
0.000123388
0.000331758
0.000603623
0.000891215
0.000900202
0.000791774
0.000693063
0.000607984
0.000535972
0.000474965
0.000422924
0.000378153
0.000339543
0.000305903
0.00027662
0.000251002
0.000228456
0.000208619
0.00019111
0.000175636
0.000161954
0.000149843
0.000139128
0.000129642
0.000121248
0.000113829
0.000107296
0.00010156
9.65453e-05
9.21856e-05
8.8422e-05
8.51997e-05
8.24702e-05
8.01875e-05
7.83092e-05
7.67957e-05
7.56081e-05
7.47097e-05
7.40655e-05
7.36423e-05
7.34098e-05
7.33406e-05
7.34119e-05
7.36047e-05
7.39045e-05
7.43015e-05
7.47907e-05
7.53716e-05
7.60478e-05
7.6825e-05
7.77103e-05
7.87105e-05
7.98319e-05
8.10801e-05
8.24578e-05
8.40334e-05
8.56538e-05
8.66755e-05
8.78286e-05
8.91895e-05
9.07522e-05
9.25153e-05
9.44759e-05
9.66201e-05
9.89449e-05
0.00010144
0.000104089
0.000106869
0.000109744
0.000112675
0.000115613
0.0001185
0.000121274
0.000123873
0.00012624
0.000128322
0.000130064
0.000131427
0.000132377
0.000132885
0.000132922
0.000132457
0.000131464
0.000129917
0.000127804
0.000125128
0.000121806
0.00011825
0.000113532
0.000109285
0.000103373
9.80062e-05
9.27966e-05
8.52404e-05
8.27821e-05
7.13036e-05
7.57851e-05
0.000213852
4.91697e-05
8.25863e-05
0.000152915
0.000133603
0.000168298
8.27735e-05
0.000125943
8.71525e-05
0.000106843
0.000100354
8.26243e-05
6.28491e-06
0.000123757
0.000331513
0.000604472
0.000846351
0.000767767
0.000688664
0.000612449
0.000544554
0.000485162
0.000433546
0.000388661
0.000349673
0.000315585
0.000285575
0.000259208
0.000235909
0.000215361
0.000197145
0.000181001
0.000166663
0.00015393
0.00014261
0.000132549
0.000123596
0.000115639
0.000108574
0.000102319
9.67968e-05
9.19362e-05
8.76774e-05
8.3967e-05
8.07546e-05
7.79958e-05
7.56495e-05
7.36776e-05
7.20456e-05
7.07199e-05
6.96695e-05
6.88659e-05
6.82832e-05
6.78988e-05
6.76941e-05
6.76547e-05
6.77695e-05
6.80299e-05
6.843e-05
6.8967e-05
6.9641e-05
7.04544e-05
7.14104e-05
7.25115e-05
7.37587e-05
7.51511e-05
7.66872e-05
7.83859e-05
8.01991e-05
8.1943e-05
8.29638e-05
8.41838e-05
8.56155e-05
8.72479e-05
8.90779e-05
9.11047e-05
9.33153e-05
9.57039e-05
9.82691e-05
0.000101001
0.000103884
0.000106887
0.000109975
0.000113102
0.000116217
0.000119257
0.000122158
0.000124857
0.000127297
0.000129422
0.000131181
0.000132531
0.000133435
0.000133861
0.000133777
0.000133157
0.000131978
0.000130224
0.000127883
0.000124861
0.000121553
0.000116827
0.000112921
0.000106631
0.000100583
9.52511e-05
8.68256e-05
8.29158e-05
7.10664e-05
7.96061e-05
0.000260732
5.48582e-05
9.77822e-05
0.000171335
0.00013869
0.000119772
8.43477e-05
0.000113583
8.63153e-05
0.000108652
9.98558e-05
8.60198e-05
6.3055e-06
0.000124149
0.000331164
0.000605907
0.000709137
0.000657441
0.00059909
0.000540584
0.000486657
0.00043803
0.000394737
0.00035639
0.000322486
0.000292446
0.000265913
0.000242312
0.000221265
0.000202523
0.000185836
0.000170993
0.000157726
0.000145895
0.000135332
0.000125886
0.000117445
0.000109909
0.000103186
9.72049e-05
9.18956e-05
8.7194e-05
8.30464e-05
7.94042e-05
7.62219e-05
7.34593e-05
7.10801e-05
6.90503e-05
6.73401e-05
6.59207e-05
6.4767e-05
6.38565e-05
6.31704e-05
6.26939e-05
6.24167e-05
6.23326e-05
6.24369e-05
6.27249e-05
6.3192e-05
6.38346e-05
6.46512e-05
6.56422e-05
6.68078e-05
6.81466e-05
6.96545e-05
7.13243e-05
7.31421e-05
7.51624e-05
7.72272e-05
7.88543e-05
7.98911e-05
8.11436e-05
8.26049e-05
8.42654e-05
8.61199e-05
8.81707e-05
9.04073e-05
9.28234e-05
9.54275e-05
9.82179e-05
0.000101184
0.000104303
0.000107544
0.000110866
0.000114217
0.000117537
0.00012076
0.000123819
0.000126651
0.000129193
0.00013139
0.000133188
0.00013454
0.000135408
0.000135757
0.000135556
0.00013478
0.000133414
0.000131441
0.000128752
0.000125714
0.000121125
0.000117181
0.000111079
0.000104363
9.86254e-05
8.95948e-05
8.37071e-05
7.47246e-05
8.92516e-05
0.000238552
6.7623e-05
0.000110016
0.000207716
0.000157912
7.58371e-05
7.81605e-05
9.34549e-05
8.68571e-05
0.000107381
0.000101222
9.10672e-05
6.33396e-06
0.000124561
0.000330696
0.000608322
0.000601365
0.000566063
0.000522501
0.000477574
0.000434749
0.000395053
0.000358894
0.000326255
0.000296931
0.000270631
0.000247077
0.000225962
0.000207093
0.000190107
0.000174855
0.000161168
0.000148918
0.000137938
0.000128082
0.000119219
0.000111263
0.000104129
9.77382e-05
9.20229e-05
8.69245e-05
8.2385e-05
7.83561e-05
7.47947e-05
7.16592e-05