/*--------------------------------*- C++ -*----------------------------------*\
| =========                 |                                                 |
| \\      /  F ield         | OpenFOAM: The Open Source CFD Toolbox           |
|  \\    /   O peration     | Version:  v2106                                 |
|   \\  /    A nd           | Website:  www.openfoam.com                      |
|    \\/     M anipulation  |                                                 |
\*---------------------------------------------------------------------------*/
FoamFile
{
    version     2.0;
    format      ascii;
    arch        "LSB;label=32;scalar=64";
    class       volScalarField;
    location    "1.6";
    object      omega;
}
// * * * * * * * * * * * * * * * * * * * * * * * * * * * * * * * * * * * * * //

dimensions      [0 0 -1 0 0 0 0];

internalField   nonuniform List<scalar> 
29678
(
6.77989
1.48736
0.608196
0.344987
0.241396
0.193535
0.169498
0.157074
0.150728
0.147621
0.146206
0.145636
0.14547
0.14549
0.145595
0.145748
0.145933
0.146152
0.146411
0.146718
0.147087
0.147535
0.148084
0.148767
0.149627
0.150723
0.152136
0.153822
0.15581
0.158236
0.161347
0.165672
0.172767
0.183472
0.193673
0.201001
0.203952
0.205207
0.205406
0.204681
0.203436
0.201832
0.200061
0.198289
0.196372
0.194572
0.192948
0.19147
0.190191
0.189054
0.18806
0.187259
0.186662
0.186252
0.186034
0.18605
0.186395
0.187054
0.187994
0.189169
0.190331
0.191402
0.192481
0.193483
0.194475
0.195825
0.19724
0.198338
0.205283
0.221393
0.236227
0.25293
0.270867
0.288373
0.300257
0.30117
0.290475
0.269706
0.249311
0.236739
0.232176
0.23156
0.232777
0.234102
0.234403
0.233494
0.22739
0.222333
0.223995
0.23013
0.234198
0.247882
0.272751
0.323029
0.417273
0.589566
0.857547
1.53409
1.68256
1.60402
1.29479
1.06223
0.917201
0.791586
0.677145
0.607327
0.584891
0.6959
0.650733
0.511788
6.77912
1.48668
0.607834
0.344825
0.241334
0.193528
0.169523
0.157125
0.150801
0.147701
0.146294
0.145746
0.145609
0.145664
0.145813
0.146017
0.146267
0.146569
0.146931
0.147371
0.147908
0.148571
0.149394
0.150428
0.151735
0.153272
0.155024
0.15704
0.159382
0.162113
0.165308
0.169144
0.174349
0.182137
0.189889
0.194593
0.19701
0.198167
0.198424
0.197863
0.196838
0.195527
0.194097
0.192624
0.191176
0.1898
0.188493
0.187279
0.18616
0.185184
0.184392
0.183835
0.183527
0.183453
0.183626
0.184079
0.184892
0.186025
0.187451
0.189046
0.190425
0.191621
0.1927
0.193653
0.194662
0.195831
0.196714
0.196686
0.195165
0.191572
0.185491
0.18004
0.176328
0.174644
0.174313
0.174176
0.172904
0.171409
0.172146
0.175909
0.181384
0.186543
0.190548
0.193685
0.196456
0.199407
0.201515
0.202701
0.205453
0.209134
0.21271
0.219648
0.23343
0.259595
0.311683
0.449062
0.69317
1.0108
1.4753
1.45268
1.24988
1.11476
0.937009
0.825441
0.690206
0.578259
0.457352
0.349856
0.251422
0.186264
6.77877
1.48566
0.607309
0.344584
0.241235
0.193504
0.169541
0.157171
0.150861
0.147772
0.146378
0.145844
0.145723
0.145793
0.145956
0.146175
0.146442
0.146761
0.147144
0.147605
0.148167
0.148855
0.149706
0.150764
0.152088
0.153629
0.155369
0.15735
0.159624
0.162272
0.165426
0.169242
0.173709
0.178163
0.181944
0.185104
0.187576
0.18936
0.190548
0.191115
0.190998
0.190404
0.189495
0.188397
0.187183
0.185916
0.184678
0.18348
0.182354
0.181355
0.180507
0.179831
0.179344
0.179051
0.178959
0.179075
0.179421
0.179999
0.180794
0.181775
0.18286
0.183972
0.185027
0.185951
0.18689
0.187804
0.188539
0.188835
0.188212
0.185177
0.180011
0.174719
0.170062
0.166278
0.163678
0.162382
0.162084
0.163029
0.165515
0.169317
0.173723
0.177729
0.181237
0.184427
0.187411
0.190261
0.192837
0.195319
0.19861
0.202212
0.206665
0.213517
0.22357
0.242873
0.276048
0.386268
0.615332
0.944745
1.1553
1.18596
1.21749
1.10011
0.926952
0.818999
0.691072
0.57741
0.4503
0.330826
0.235913
0.180804
6.77848
1.48456
0.606727
0.34432
0.24113
0.193483
0.169563
0.157213
0.150916
0.147838
0.146456
0.145934
0.145822
0.145899
0.146068
0.146292
0.146563
0.146886
0.147271
0.147736
0.148299
0.148988
0.149833
0.150878
0.152176
0.153701
0.155408
0.157325
0.159485
0.161923
0.164668
0.167733
0.171152
0.17499
0.178883
0.182185
0.1847
0.186485
0.187662
0.188248
0.188112
0.187473
0.186515
0.185361
0.184108
0.182856
0.181665
0.180558
0.179555
0.178674
0.177946
0.177394
0.17704
0.176899
0.176981
0.177299
0.177864
0.178671
0.179695
0.180886
0.182164
0.183409
0.18451
0.185498
0.186431
0.187155
0.187471
0.187035
0.185198
0.182004
0.178077
0.1741
0.17042
0.167269
0.164977
0.16383
0.163807
0.164926
0.167332
0.17104
0.175456
0.179422
0.182868
0.185923
0.188727
0.191434
0.194102
0.196845
0.200564
0.204914
0.210662
0.218682
0.229141
0.246402
0.271186
0.350765
0.550333
0.830291
1.06375
1.07507
1.20134
1.05295
0.890252
0.780813
0.665097
0.561412
0.449552
0.345266
0.257108
0.194681
6.77808
1.48334
0.606098
0.344043
0.241032
0.193473
0.16959
0.157253
0.150966
0.147902
0.146536
0.146028
0.145927
0.146013
0.146188
0.146418
0.146696
0.147026
0.14742
0.147894
0.148467
0.149164
0.150016
0.151059
0.152339
0.153855
0.155537
0.157403
0.159471
0.161757
0.164269
0.166995
0.16988
0.17277
0.175436
0.177715
0.179566
0.181007
0.182017
0.182443
0.18242
0.182073
0.181503
0.18079
0.180005
0.179209
0.17844
0.17771
0.177032
0.176439
0.175965
0.175638
0.175477
0.175496
0.175702
0.176098
0.176687
0.177453
0.17837
0.179389
0.180446
0.181469
0.182396
0.183252
0.183963
0.184387
0.184346
0.183666
0.182215
0.17996
0.177115
0.174077
0.171173
0.168672
0.166848
0.16588
0.165709
0.166304
0.167773
0.170131
0.173156
0.176404
0.179373
0.182082
0.18468
0.187299
0.190048
0.193087
0.197003
0.201637
0.207794
0.216044
0.226647
0.243232
0.265388
0.333842
0.507754
0.772795
0.97851
0.988103
1.16074
1.02425
0.844083
0.739741
0.633092
0.544629
0.442309
0.345244
0.260425
0.197332
6.7775
1.48197
0.605423
0.343766
0.240955
0.193481
0.16962
0.157287
0.151008
0.147963
0.14662
0.146132
0.146047
0.146143
0.146327
0.146566
0.146854
0.147196
0.147604
0.148093
0.148683
0.149397
0.150262
0.151312
0.152584
0.154092
0.155758
0.157586
0.159584
0.161756
0.164099
0.166589
0.169183
0.171806
0.174344
0.17667
0.178693
0.180373
0.181703
0.182634
0.183006
0.182936
0.182542
0.181922
0.181161
0.180331
0.179491
0.17869
0.177969
0.177363
0.176896
0.176586
0.176447
0.176486
0.176705
0.177103
0.177672
0.178398
0.179252
0.180193
0.181167
0.182113
0.182978
0.183834
0.184518
0.184897
0.18483
0.184189
0.18288
0.18094
0.178576
0.176059
0.173642
0.171581
0.170118
0.169393
0.169396
0.170121
0.171652
0.174016
0.177045
0.180111
0.182956
0.185643
0.18828
0.190985
0.193853
0.197064
0.201152
0.205929
0.212166
0.220323
0.230809
0.245127
0.264119
0.31906
0.47013
0.730106
0.964425
0.971624
1.12353
0.993719
0.785196
0.681995
0.580794
0.512171
0.424249
0.341387
0.26452
0.201829
6.77669
1.48044
0.604713
0.343509
0.240914
0.193508
0.169643
0.157304
0.151038
0.148023
0.146714
0.146253
0.146186
0.146296
0.146492
0.146743
0.147045
0.147403
0.147831
0.148342
0.148955
0.149691
0.150575
0.151637
0.152909
0.154414
0.156075
0.15788
0.159833
0.16193
0.16416
0.166497
0.168896
0.171291
0.173592
0.175708
0.177575
0.179163
0.180462
0.181321
0.181729
0.181788
0.181585
0.181199
0.180698
0.180139
0.17957
0.179028
0.178546
0.178156
0.177887
0.177757
0.177782
0.177968
0.178316
0.17882
0.179469
0.180243
0.181111
0.182028
0.182943
0.183799
0.184608
0.185338
0.18586
0.186058
0.185839
0.185138
0.183936
0.182299
0.18035
0.178272
0.176274
0.174555
0.173282
0.17255
0.172366
0.172741
0.173731
0.175344
0.177482
0.179897
0.182304
0.184655
0.187056
0.189631
0.192483
0.195811
0.199963
0.205003
0.211447
0.219871
0.230207
0.244048
0.261881
0.30811
0.439218
0.686654
0.942811
0.948595
1.07869
0.94449
0.721164
0.609007
0.517558
0.46903
0.398886
0.330879
0.263038
0.203145
6.77565
1.47875
0.603981
0.343292
0.240924
0.193548
0.169645
0.157293
0.151053
0.148084
0.146821
0.146394
0.146349
0.146476
0.146687
0.146954
0.147275
0.147656
0.148109
0.148647
0.149288
0.150051
0.15096
0.152041
0.153324
0.154834
0.156506
0.158309
0.160243
0.162302
0.164469
0.166719
0.169013
0.171297
0.173509
0.175584
0.177472
0.17914
0.180573
0.181679
0.182362
0.1827
0.182766
0.18263
0.182356
0.182
0.18161
0.181227
0.180887
0.180623
0.180463
0.180426
0.180524
0.180765
0.181144
0.181655
0.182282
0.183002
0.183783
0.184586
0.185364
0.186077
0.186794
0.187416
0.187835
0.187968
0.187749
0.187125
0.186098
0.184714
0.183067
0.181301
0.179578
0.17807
0.176922
0.176224
0.176016
0.176336
0.177223
0.178664
0.18057
0.182766
0.184982
0.187228
0.189597
0.19219
0.195109
0.198501
0.202646
0.207839
0.214177
0.222409
0.231727
0.244908
0.262044
0.299741
0.41392
0.643788
0.910206
0.916613
1.03876
0.880661
0.65938
0.527586
0.450039
0.418498
0.368238
0.315874
0.259027
0.203532
6.77433
1.47691
0.603245
0.343144
0.24099
0.193583
0.169605
0.157244
0.151052
0.148152
0.146947
0.14656
0.146542
0.146689
0.146919
0.147208
0.147554
0.147962
0.148443
0.149012
0.149686
0.150483
0.151426
0.152539
0.153848
0.155377
0.157076
0.158898
0.16084
0.162892
0.165039
0.167257
0.16951
0.171755
0.173944
0.176027
0.177961
0.179716
0.181273
0.182577
0.183504
0.184105
0.18444
0.18457
0.184554
0.184442
0.184281
0.184109
0.183962
0.183871
0.183861
0.183952
0.184156
0.184477
0.184912
0.185451
0.186077
0.186765
0.187485
0.188199
0.188866
0.189493
0.19012
0.190634
0.190955
0.191022
0.190751
0.190117
0.18913
0.187834
0.186332
0.184744
0.183201
0.181833
0.180754
0.180045
0.17976
0.179941
0.180608
0.181731
0.183238
0.185025
0.186903
0.188893
0.191085
0.193571
0.196453
0.199839
0.20396
0.209281
0.215392
0.223337
0.231761
0.244558
0.260719
0.292588
0.392457
0.599438
0.861132
0.869559
1.0058
0.831376
0.594498
0.452396
0.395198
0.371257
0.338075
0.299222
0.252719
0.202787
6.77274
1.47491
0.60253
0.343093
0.241104
0.193586
0.169506
0.157155
0.151042
0.148231
0.147097
0.146756
0.14677
0.146941
0.147196
0.147512
0.147885
0.148323
0.148839
0.149445
0.150159
0.151001
0.15199
0.153148
0.154499
0.156064
0.157807
0.159669
0.161643
0.16372
0.165885
0.168114
0.170377
0.172639
0.174859
0.176997
0.179017
0.180889
0.182596
0.184116
0.185324
0.186223
0.186861
0.187291
0.187563
0.187722
0.187813
0.187872
0.187932
0.188024
0.18817
0.18839
0.188693
0.189083
0.189556
0.1901
0.190698
0.191326
0.191954
0.192549
0.193076
0.193611
0.194121
0.194513
0.194732
0.194699
0.194367
0.193721
0.192769
0.191567
0.190183
0.188712
0.187266
0.185955
0.184879
0.184118
0.18373
0.18376
0.184219
0.185075
0.186268
0.187739
0.189362
0.191156
0.193202
0.195583
0.198393
0.201723
0.205716
0.210889
0.216197
0.223796
0.23128
0.24349
0.258134
0.286676
0.377061
0.564683
0.808538
0.82085
0.984492
0.813065
0.538375
0.399861
0.355274
0.337413
0.31292
0.283463
0.245362
0.201297
6.77086
1.47279
0.601864
0.343164
0.24124
0.193524
0.169335
0.15703
0.151032
0.148331
0.147277
0.146988
0.147038
0.14724
0.147524
0.147869
0.148274
0.148748
0.149305
0.149957
0.150722
0.151618
0.152665
0.153883
0.155294
0.156915
0.158721
0.160643
0.162675
0.164806
0.167023
0.169304
0.171622
0.173946
0.176243
0.178479
0.18062
0.182641
0.184522
0.18625
0.187774
0.189005
0.189981
0.190745
0.191337
0.191801
0.192173
0.192489
0.19278
0.193073
0.193389
0.193746
0.194152
0.194609
0.195114
0.195654
0.196214
0.196769
0.197295
0.19776
0.198147
0.198596
0.198998
0.199299
0.199407
0.199271
0.198864
0.19817
0.197203
0.19601
0.194656
0.193222
0.191799
0.190481
0.189356
0.188502
0.187982
0.187839
0.188082
0.188682
0.189593
0.190777
0.192159
0.19376
0.19565
0.197902
0.200597
0.203829
0.207562
0.212159
0.216992
0.224249
0.230978
0.242448
0.256049
0.282829
0.368092
0.542239
0.768111
0.784847
0.966976
0.813469
0.501391
0.373022
0.328817
0.316232
0.294611
0.270409
0.238
0.199244
6.76868
1.47053
0.601273
0.343375
0.241367
0.193372
0.169091
0.156881
0.151032
0.148459
0.147493
0.147264
0.147356
0.147592
0.147907
0.148286
0.148729
0.149247
0.149853
0.15056
0.151386
0.152349
0.153467
0.154762
0.156251
0.157952
0.15984
0.161845
0.16396
0.166176
0.168478
0.170848
0.17326
0.175689
0.178105
0.180477
0.182776
0.184978
0.187063
0.189016
0.19083
0.192439
0.193793
0.194929
0.195882
0.196686
0.197374
0.197978
0.198525
0.199039
0.199541
0.200043
0.200556
0.201079
0.20161
0.202138
0.202647
0.203117
0.203526
0.20385
0.204148
0.20448
0.204783
0.204956
0.204929
0.204667
0.204151
0.203377
0.202362
0.201137
0.199759
0.198301
0.196842
0.195462
0.194241
0.193252
0.192561
0.192211
0.192214
0.192547
0.19318
0.19409
0.195237
0.19664
0.19836
0.200458
0.202995
0.206046
0.209302
0.213548
0.218107
0.225054
0.231295
0.242062
0.255234
0.281574
0.365914
0.534358
0.7491
0.769066
0.959259
0.822712
0.49027
0.360876
0.310325
0.300859
0.281652
0.260922
0.231511
0.197024
6.7662
1.46817
0.60077
0.343721
0.241458
0.19312
0.168786
0.156725
0.151055
0.148621
0.147753
0.14759
0.147729
0.148002
0.148354
0.148772
0.149261
0.149831
0.150494
0.151267
0.152166
0.153208
0.154414
0.155802
0.157391
0.159198
0.161191
0.163303
0.165528
0.167858
0.170279
0.172773
0.175319
0.177893
0.180469
0.183017
0.185513
0.187932
0.190255
0.192465
0.194551
0.196508
0.198294
0.19985
0.201209
0.202396
0.20344
0.204366
0.205198
0.205957
0.20666
0.20732
0.207943
0.208534
0.209086
0.209593
0.210042
0.210415
0.210692
0.210862
0.211065
0.211307
0.211496
0.211528
0.211353
0.210946
0.210296
0.209409
0.208302
0.206999
0.205545
0.204004
0.202449
0.200953
0.199588
0.198423
0.197521
0.196927
0.196659
0.196708
0.197055
0.197692
0.198606
0.199807
0.201345
0.203272
0.205622
0.208398
0.211326
0.215365
0.219744
0.226377
0.232399
0.242603
0.256096
0.282899
0.369586
0.539987
0.753506
0.775912
0.986655
0.847073
0.490056
0.355985
0.297048
0.288814
0.269722
0.253842
0.225669
0.194856
6.76342
1.46572
0.60036
0.344159
0.241493
0.192773
0.168441
0.156578
0.151102
0.148822
0.148066
0.147977
0.148164
0.148479
0.148873
0.149338
0.14988
0.15051
0.151242
0.152092
0.153076
0.154214
0.155525
0.157028
0.158741
0.160681
0.162801
0.165046
0.16741
0.169885
0.172459
0.175116
0.177835
0.180596
0.183373
0.186141
0.188876
0.191553
0.194153
0.196657
0.199052
0.201328
0.203477
0.205493
0.207316
0.208936
0.210379
0.211666
0.212816
0.213845
0.214769
0.215599
0.216342
0.217001
0.217576
0.218058
0.21844
0.218706
0.218844
0.218853
0.218978
0.219137
0.219188
0.219066
0.218726
0.218152
0.21734
0.2163
0.215053
0.213624
0.212051
0.21038
0.208675
0.207008
0.20545
0.204064
0.202912
0.202039
0.201469
0.201207
0.201251
0.201604
0.202272
0.203262
0.204612
0.206362
0.208524
0.211071
0.213847
0.217744
0.222012
0.228318
0.234349
0.244145
0.258659
0.28596
0.376114
0.555228
0.775188
0.799732
1.03575
0.879413
0.503094
0.362293
0.290726
0.28184
0.259644
0.24635
0.220339
0.192974
6.76033
1.46323
0.600076
0.344619
0.241449
0.192346
0.168087
0.156441
0.15117
0.149075
0.148447
0.148433
0.148672
0.149032
0.149474
0.149994
0.150598
0.151299
0.152111
0.15305
0.154136
0.155387
0.156823
0.158464
0.160329
0.162432
0.164704
0.167108
0.169641
0.172295
0.175059
0.177917
0.180852
0.183844
0.186869
0.189905
0.192925
0.195909
0.198833
0.201679
0.204428
0.207065
0.209576
0.211951
0.214178
0.21625
0.218152
0.219846
0.221346
0.222671
0.223834
0.224847
0.225718
0.226453
0.227051
0.22751
0.227824
0.227983
0.227968
0.227891
0.227948
0.227988
0.227905
0.227623
0.227103
0.226338
0.225333
0.224103
0.222668
0.221059
0.219312
0.217469
0.215574
0.21369
0.211886
0.210232
0.208788
0.207599
0.206695
0.206094
0.205808
0.205853
0.206247
0.20701
0.208167
0.209747
0.211752
0.214175
0.216902
0.220746
0.224982
0.231013
0.237125
0.246637
0.262347
0.289701
0.382521
0.573674
0.803032
0.82962
1.09985
0.92326
0.529104
0.377006
0.289898
0.277241
0.251824
0.238398
0.215321
0.191199
6.75692
1.46081
0.600018
0.345035
0.241286
0.191852
0.167733
0.156289
0.151276
0.149406
0.148907
0.148967
0.14926
0.149672
0.15017
0.150752
0.151428
0.152211
0.153116
0.154161
0.155366
0.15675
0.158335
0.160141
0.162188
0.16448
0.166931
0.169526
0.172261
0.175131
0.178124
0.181227
0.184424
0.187696
0.191021
0.194377
0.19774
0.201086
0.204393
0.207636
0.210794
0.213845
0.216768
0.219541
0.222146
0.224567
0.226792
0.228813
0.230625
0.232227
0.233621
0.234809
0.235793
0.236576
0.23716
0.237544
0.237729
0.237715
0.237512
0.237415
0.237461
0.237495
0.237379
0.237025
0.236399
0.235492
0.234304
0.232861
0.2312
0.22936
0.227382
0.225309
0.223183
0.221047
0.218959
0.216989
0.215206
0.213662
0.212391
0.211419
0.21077
0.210474
0.210559
0.211056
0.212001
0.213427
0.215319
0.2177
0.220451
0.224308
0.228533
0.234401
0.240482
0.249949
0.266628
0.293906
0.387813
0.590054
0.829387
0.85801
1.18096
0.986103
0.573656
0.397512
0.294075
0.272534
0.244196
0.229969
0.209749
0.188948
6.75313
1.4585
0.600287
0.345352
0.240965
0.191327
0.16729
0.156133
0.151473
0.149833
0.149456
0.149589
0.14994
0.150409
0.150971
0.151627
0.152386
0.153264
0.154278
0.155446
0.156789
0.15833
0.16009
0.162092
0.164358
0.166859
0.16952
0.172339
0.175314
0.178439
0.181706
0.185102
0.188613
0.19222
0.195904
0.199644
0.203414
0.207191
0.210948
0.214659
0.218293
0.221821
0.22521
0.22843
0.23145
0.234249
0.236807
0.239114
0.241164
0.242953
0.244484
0.245759
0.24678
0.247553
0.24808
0.248363
0.248407
0.248215
0.247822
0.247685
0.247646
0.247589
0.247408
0.246996
0.246308
0.245333
0.24406
0.242488
0.240639
0.238558
0.236309
0.233951
0.231535
0.229106
0.226706
0.224389
0.222226
0.220281
0.218602
0.217225
0.216181
0.215507
0.215244
0.215433
0.216121
0.217361
0.219179
0.221566
0.224399
0.228259
0.232378
0.238289
0.24429
0.254178
0.271431
0.29872
0.391735
0.601988
0.857175
0.885994
1.28614
1.07445
0.648769
0.417926
0.301203
0.266257
0.237958
0.221954
0.203677
0.185427
6.74893
1.45626
0.600924
0.345556
0.240471
0.190677
0.166768
0.156047
0.15179
0.150364
0.150101
0.150308
0.150722
0.151257
0.151892
0.152632
0.153488
0.154476
0.155615
0.156927
0.158432
0.160156
0.162123
0.164358
0.166878
0.169607
0.172512
0.175592
0.178847
0.182273
0.185863
0.189606
0.193489
0.197495
0.201608
0.205804
0.21006
0.214348
0.218639
0.222899
0.227088
0.231164
0.235082
0.2388
0.242278
0.245486
0.248405
0.251019
0.253321
0.255308
0.256981
0.258341
0.259394
0.260144
0.260596
0.260754
0.260625
0.26022
0.259761
0.259506
0.25933
0.259114
0.258756
0.258171
0.257284
0.256097
0.254614
0.252849
0.250823
0.248559
0.246075
0.243422
0.240673
0.237894
0.235137
0.232451
0.229886
0.227507
0.22538
0.223557
0.222081
0.220994
0.220343
0.220179
0.220559
0.221551
0.223223
0.225641
0.228566
0.232463
0.236383
0.242623
0.248684
0.259492
0.277024
0.304388
0.394467
0.608969
0.893076
0.920483
1.41595
1.18135
0.747344
0.432418
0.315018
0.261769
0.235734
0.216869
0.199416
0.182548
6.74431
1.45404
0.601891
0.345694
0.239892
0.189757
0.166218
0.156111
0.152237
0.151006
0.150852
0.151135
0.15162
0.152229
0.152949
0.153785
0.154752
0.155868
0.157153
0.15863
0.160325
0.162263
0.164472
0.166982
0.169774
0.172763
0.175948
0.17933
0.18291
0.186688
0.190656
0.194807
0.19913
0.20361
0.208231
0.212971
0.217805
0.222701
0.227625
0.232531
0.237365
0.242069
0.246584
0.250855
0.254838
0.258499
0.261815
0.264769
0.267352
0.269558
0.271387
0.27284
0.273921
0.274635
0.27499
0.274994
0.274655
0.274004
0.273457
0.273072
0.272745
0.272347
0.271773
0.270953
0.269794
0.268296
0.26648
0.264376
0.262017
0.259436
0.256657
0.253709
0.250621
0.247455
0.244288
0.241181
0.238187
0.235359
0.23276
0.230456
0.228509
0.22697
0.225892
0.225332
0.225355
0.226035
0.227464
0.229741
0.232716
0.23679
0.240612
0.247461
0.253792
0.265837
0.283643
0.311262
0.397977
0.615201
0.942343
0.967803
1.56854
1.30095
0.833828
0.44788
0.335823
0.261047
0.239086
0.21555
0.198318
0.181337
6.73928
1.45177
0.603127
0.34583
0.239029
0.188691
0.165798
0.156343
0.152816
0.151767
0.151719
0.152084
0.152646
0.153341
0.154157
0.155105
0.1562
0.157463
0.158916
0.160586
0.1625
0.164688
0.167183
0.170009
0.173081
0.176366
0.179871
0.1836
0.187557
0.191741
0.19615
0.20078
0.20562
0.210661
0.215886
0.221274
0.226797
0.232418
0.238091
0.243753
0.249332
0.25475
0.259937
0.264831
0.269384
0.27356
0.277331
0.280677
0.283584
0.286042
0.288047
0.289598
0.2907
0.29136
0.291587
0.291394
0.290794
0.289895
0.289215
0.288688
0.288187
0.287577
0.28675
0.285643
0.284149
0.282261
0.280013
0.277448
0.274614
0.271558
0.268323
0.264945
0.261448
0.257852
0.25422
0.250629
0.247146
0.243828
0.240733
0.237928
0.235482
0.233457
0.231915
0.23092
0.230538
0.230849
0.231946
0.233937
0.236721
0.240979
0.244979
0.252702
0.259599
0.273021
0.291447
0.319822
0.405815
0.630705
1.01147
1.03352
1.74855
1.44016
0.903241
0.474492
0.358724
0.264952
0.247028
0.216607
0.20019
0.181746
6.73383
1.44943
0.604616
0.346077
0.23774
0.187564
0.165592
0.156744
0.153534
0.152655
0.152715
0.153167
0.153817
0.154608
0.155535
0.15661
0.157852
0.159284
0.160932
0.162825
0.164995
0.167475
0.170303
0.173453
0.176834
0.180454
0.184324
0.188449
0.192836
0.19749
0.202412
0.2076
0.213051
0.218755
0.224698
0.23086
0.237207
0.243692
0.250248
0.25679
0.263224
0.269457
0.275411
0.281022
0.286241
0.291024
0.295337
0.299151
0.302441
0.305191
0.307391
0.30904
0.310142
0.310711
0.31076
0.310308
0.309383
0.308286
0.307433
0.306724
0.306011
0.305146
0.304019
0.302567
0.300668
0.2983
0.295515
0.292373
0.288933
0.285256
0.281402
0.277422
0.273354
0.269215
0.265036
0.260882
0.256829
0.252949
0.249302
0.245956
0.242978
0.240437
0.2384
0.236934
0.236106
0.235989
0.236674
0.238281
0.24076
0.244977
0.249085
0.257881
0.265821
0.280794
0.300576
0.330647
0.420974
0.663494
1.10481
1.12374
1.9339
1.59706
1.00814
0.51662
0.38127
0.276074
0.257263
0.219605
0.204173
0.183249
6.72794
1.44703
0.606368
0.346045
0.23624
0.186605
0.165608
0.157315
0.154397
0.153681
0.153851
0.154398
0.155146
0.156049
0.157103
0.158323
0.159734
0.16136
0.163232
0.165383
0.16785
0.170671
0.17387
0.177341
0.181067
0.185063
0.189343
0.193918
0.198797
0.203991
0.209507
0.215351
0.221521
0.228013
0.234815
0.241905
0.24924
0.256751
0.264344
0.271905
0.279324
0.286502
0.293359
0.299829
0.305853
0.311377
0.316351
0.320728
0.324469
0.327547
0.329947
0.331669
0.332725
0.333135
0.332924
0.332118
0.330829
0.329502
0.328448
0.327527
0.326568
0.325412
0.323938
0.322081
0.319708
0.316761
0.313317
0.30946
0.305268
0.300819
0.296184
0.29143
0.286611
0.281761
0.276903
0.272078
0.267356
0.262815
0.258526
0.254561
0.250989
0.247879
0.245301
0.24332
0.242002
0.24141
0.241626
0.242787
0.244905
0.248929
0.253138
0.262422
0.271595
0.288511
0.310708
0.343779
0.442305
0.708916
1.21414
1.23226
2.04553
1.76025
1.16362
0.612127
0.415301
0.295018
0.268238
0.223691
0.208763
0.18508
6.72156
1.44462
0.608409
0.34552
0.234639
0.185918
0.165842
0.158058
0.155412
0.154855
0.15514
0.155792
0.156651
0.157679
0.158878
0.160267
0.161871
0.163719
0.165849
0.168299
0.171109
0.174324
0.177875
0.181696
0.185805
0.19022
0.19496
0.200041
0.205481
0.211298
0.217508
0.22412
0.231144
0.238578
0.246416
0.254626
0.263145
0.27187
0.280673
0.289422
0.298001
0.306311
0.314272
0.321804
0.32883
0.335272
0.341051
0.346097
0.350348
0.353767
0.356337
0.358067
0.358981
0.359117
0.358518
0.357223
0.355471
0.353877
0.352601
0.351453
0.350231
0.348754
0.34689
0.344572
0.341664
0.338033
0.333796
0.329065
0.323949
0.318548
0.312954
0.307246
0.301492
0.295744
0.290033
0.284393
0.278877
0.273559
0.268517
0.263828
0.259568
0.255807
0.252614
0.250052
0.248188
0.247077
0.246791
0.247463
0.249169
0.25287
0.257112
0.266486
0.276378
0.29512
0.320378
0.357756
0.462964
0.752973
1.3217
1.33703
2.10701
1.90089
1.30021
0.773076
0.455325
0.321318
0.277563
0.228636
0.212123
0.186516
6.71464
1.44239
0.610483
0.344534
0.233009
0.185505
0.166291
0.158978
0.156589
0.15619
0.156595
0.157363
0.158348
0.159518
0.160883
0.162463
0.164289
0.166396
0.168821
0.171612
0.174821
0.178432
0.182331
0.186533
0.191062
0.195941
0.201194
0.206849
0.212931
0.21947
0.226492
0.234016
0.242061
0.250637
0.259732
0.269296
0.279227
0.289383
0.299609
0.309773
0.319765
0.329484
0.338835
0.34771
0.355994
0.363571
0.370324
0.37614
0.380934
0.384657
0.387301
0.388895
0.389494
0.389168
0.387986
0.38607
0.383667
0.381782
0.380269
0.378883
0.377383
0.37556
0.373273
0.370443
0.366959
0.362553
0.357382
0.351603
0.345363
0.338799
0.332032
0.32516
0.318267
0.311421
0.304666
0.298036
0.291576
0.285346
0.279425
0.273893
0.26883
0.264311
0.260407
0.25718
0.254694
0.253008
0.252182
0.252329
0.253558
0.256792
0.260894
0.270106
0.280308
0.300008
0.32727
0.369592
0.474966
0.776623
1.39942
1.41272
2.19101
1.9785
1.49983
0.908861
0.486227
0.343513
0.281818
0.232552
0.212282
0.186548
6.70704
1.44074
0.611645
0.343354
0.231644
0.185361
0.166951
0.160079
0.157937
0.157697
0.158231
0.159126
0.160252
0.161585
0.163137
0.164935
0.167015
0.169417
0.172187
0.175374
0.179007
0.182967
0.18724
0.191855
0.196842
0.202231
0.20806
0.214368
0.221194
0.228577
0.23656
0.245179
0.254465
0.264434
0.275061
0.286253
0.29786
0.309708
0.321647
0.333558
0.345334
0.356861
0.368005
0.378609
0.388507
0.397542
0.40552
0.412219
0.417545
0.42145
0.423952
0.425117
0.42506
0.423932
0.42185
0.419109
0.416034
0.413727
0.411891
0.410213
0.408399
0.406206
0.403465
0.400085
0.396005
0.390787
0.38456
0.377548
0.369963
0.361992
0.353796
0.34551
0.337242
0.329072
0.321061
0.313248
0.305669
0.298375
0.291434
0.284924
0.27893
0.273533
0.268805
0.264812
0.261613
0.259272
0.257848
0.257424
0.258102
0.260717
0.26448
0.273147
0.283365
0.303297
0.330554
0.376572
0.478763
0.774915
1.40673
1.42243
2.28662
1.97156
1.6738
0.978069
0.504703
0.351888
0.273478
0.233171
0.205486
0.183803
6.6986
1.44031
0.611571
0.341771
0.230518
0.185477
0.167824
0.161366
0.159464
0.159386
0.160058
0.161095
0.16238
0.163895
0.16566
0.167707
0.170077
0.172817
0.17598
0.179614
0.183612
0.187922
0.192587
0.197647
0.203134
0.209094
0.215577
0.222637
0.230331
0.238715
0.247853
0.257802
0.268611
0.28029
0.292771
0.305905
0.319503
0.333401
0.347478
0.361626
0.375736
0.389662
0.403287
0.416249
0.428601
0.440186
0.45048
0.458869
0.46493
0.468579
0.470024
0.469624
0.467766
0.464793
0.461019
0.457009
0.453104
0.450145
0.447829
0.44577
0.443597
0.441008
0.437793
0.433841
0.429105
0.423174
0.415829
0.407429
0.398269
0.388618
0.378702
0.368707
0.35878
0.349026
0.339517
0.3303
0.321407
0.312876
0.304758
0.297126
0.290061
0.283651
0.277974
0.273096
0.269079
0.265982
0.263872
0.262811
0.262862
0.264718
0.267942
0.27569
0.285652
0.304832
0.331799
0.379145
0.475325
0.756852
1.33623
1.35426
2.29056
1.91321
1.55719
0.931811
0.47881
0.344132
0.26069
0.228745
0.19661
0.179118
6.68931
1.44154
0.610068
0.339657
0.229627
0.185844
0.168908
0.162845
0.161177
0.161266
0.162089
0.163283
0.164746
0.166468
0.168474
0.170803
0.173502
0.176627
0.180232
0.184252
0.188587
0.193277
0.198361
0.203889
0.209932
0.216538
0.223775
0.231714
0.240434
0.25002
0.260561
0.272147
0.284833
0.298594
0.313295
0.328742
0.344762
0.361239
0.378091
0.395232
0.412631
0.430163
0.448608
0.468096
0.488545
0.509193
0.528031
0.542538
0.550948
0.553013
0.549784
0.542884
0.533776
0.523542
0.513433
0.504427
0.497224
0.492184
0.488728
0.486099
0.483436
0.480334
0.476573
0.472004
0.466554
0.460035
0.451637
0.441776
0.430851
0.419243
0.407285
0.395243
0.383322
0.371668
0.360377
0.349501
0.339069
0.329104
0.319639
0.310727
0.302443
0.294874
0.288105
0.282209
0.277249
0.273281
0.270374
0.268583
0.26793
0.268924
0.271426
0.27799
0.287437
0.305158
0.331538
0.378854
0.468544
0.730519
1.23314
1.2505
2.23507
1.75062
1.28882
0.765376
0.423581
0.329283
0.252766
0.222787
0.191034
0.176185
6.67933
1.44433
0.607231
0.33712
0.229016
0.186459
0.170202
0.164518
0.163084
0.163348
0.164333
0.165702
0.167364
0.169318
0.171595
0.174243
0.177315
0.180871
0.184879
0.189208
0.193894
0.198983
0.20453
0.210594
0.217246
0.224591
0.232706
0.241682
0.251632
0.262676
0.274942
0.288547
0.30353
0.31979
0.337136
0.355398
0.374481
0.394354
0.415088
0.436702
0.461147
0.490378
0.526033
0.569118
0.620095
0.676585
0.730842
0.772298
0.793104
0.791671
0.771965
0.740437
0.702997
0.663427
0.628371
0.598526
0.574776
0.557105
0.544686
0.536143
0.529968
0.52496
0.520227
0.51494
0.508693
0.501453
0.492325
0.481072
0.46828
0.454482
0.440156
0.425695
0.411396
0.397473
0.384057
0.371218
0.358982
0.347357
0.336352
0.326013
0.316352
0.30746
0.299436
0.292364
0.286314
0.281339
0.277504
0.274865
0.273427
0.273488
0.275127
0.280383
0.28908
0.305123
0.330666
0.377863
0.46565
0.70563
1.13203
1.15069
2.20941
1.5836
1.03465
0.622778
0.393321
0.316694
0.250181
0.219075
0.18911
0.175742
6.66877
1.4467
0.604455
0.33488
0.228706
0.187316
0.171706
0.16639
0.165189
0.165636
0.166798
0.16836
0.170244
0.172458
0.175041
0.178046
0.181534
0.185497
0.189786
0.194431
0.199485
0.205008
0.21107
0.217749
0.225132
0.233316
0.242446
0.252662
0.264096
0.276922
0.291317
0.3074
0.325146
0.344381
0.364937
0.386764
0.409926
0.434625
0.462663
0.498509
0.548246
0.619903
0.719154
0.846752
1.00097
1.17238
1.33722
1.46211
1.52579
1.52443
1.4689
1.37783
1.26879
1.15485
1.05351
0.956002
0.86304
0.777373
0.705152
0.652009
0.616448
0.59345
0.577997
0.566525
0.55685
0.547781
0.538055
0.525629
0.511056
0.49495
0.477983
0.460727
0.443629
0.42701
0.411065
0.395899
0.381574
0.368033
0.355263
0.343269
0.332051
0.321669
0.312219
0.303798
0.296488
0.290349
0.285439
0.281812
0.279488
0.278572
0.279256
0.283192
0.290943
0.305477
0.330278
0.377668
0.466463
0.690455
1.05465
1.07783
2.22297
1.46397
0.898995
0.559859
0.386859
0.310236
0.25039
0.217176
0.189158
0.176941
6.65759
1.44855
0.601933
0.333014
0.228693
0.188413
0.173421
0.16846
0.167494
0.168135
0.169489
0.171264
0.173396
0.175899
0.178822
0.182223
0.186108
0.190323
0.194891
0.199869
0.205325
0.211334
0.217982
0.225369
0.233603
0.242814
0.253144
0.264803
0.278044
0.293058
0.310064
0.329139
0.350165
0.372985
0.397595
0.424219
0.453469
0.490419
0.544662
0.631634
0.772598
0.987765
1.2785
1.62445
1.99775
2.37403
2.71328
2.97054
3.10708
3.11122
3.00272
2.8192
2.59954
2.38634
2.19034
1.99613
1.79209
1.57538
1.35514
1.14865
0.974389
0.840669
0.744239
0.680584
0.640246
0.613683
0.594475
0.577466
0.559786
0.541122
0.521388
0.501044
0.480734
0.46096
0.442051
0.424138
0.407303
0.391506
0.376694
0.36282
0.349849
0.3378
0.326746
0.316788
0.308026
0.300536
0.29438
0.289606
0.28627
0.284325
0.284006
0.286666
0.293339
0.306713
0.331292
0.380024
0.471273
0.686978
1.00933
1.03741
2.26262
1.41338
0.841849