/*--------------------------------*- C++ -*----------------------------------*\
| =========                 |                                                 |
| \\      /  F ield         | OpenFOAM: The Open Source CFD Toolbox           |
|  \\    /   O peration     | Version:  v2106                                 |
|   \\  /    A nd           | Website:  www.openfoam.com                      |
|    \\/     M anipulation  |                                                 |
\*---------------------------------------------------------------------------*/
FoamFile
{
    version     2.0;
    format      ascii;
    arch        "LSB;label=32;scalar=64";
    class       volScalarField;
    location    "1.6";
    object      p;
}
// * * * * * * * * * * * * * * * * * * * * * * * * * * * * * * * * * * * * * //

dimensions      [1 -1 -2 0 0 0 0];

internalField   nonuniform List<scalar> 
29678
(
14641.7
14494.5
14347.4
14200.2
14053.1
13905.9
13758.7
13611.5
13464.4
13317.2
13170
13022.8
12875.6
12728.4
12581.1
12433.9
12286.7
12139.4
11992.2
11844.9
11697.6
11550.3
11403
11255.6
11108.2
10960.7
10813.2
10665.4
10517.3
10368.3
10217.6
10063.6
9904.12
9733.05
9556.95
9396.72
9242.28
9090.18
8939.12
8788.67
8638.58
8488.75
8339.13
8189.67
8040.37
7891.21
7742.18
7593.25
7444.42
7295.71
7147.12
6998.64
6850.29
6702.06
6553.95
6405.97
6258.11
6110.39
5962.8
5815.33
5667.99
5520.76
5373.62
5226.55
5079.49
4932.35
4784.95
4636.88
4487.51
4334.9
4184.58
4036.01
3886.28
3735.97
3585.56
3434.69
3283.12
3131.03
2979.03
2827.14
2675.19
2525.12
2377.89
2232.95
2088.39
1941.15
1790.87
1639.27
1491.22
1344.83
1196.09
1045.21
895.606
746.018
594.532
441.906
288.207
133.188
22.0331
0.112737
-0.235764
-0.313123
-0.53241
-0.682693
-0.870548
-1.04439
-1.22604
-1.4049
-1.58644
-1.76763
14642.2
14495.1
14347.9
14200.7
14053.5
13906.3
13759.1
13611.9
13464.6
13317.4
13170.1
13022.8
12875.5
12728.2
12580.8
12433.4
12286
12138.6
11991.2
11843.7
11696.1
11548.5
11400.8
11253.1
11105.2
10957.1
10808.9
10660.3
10511.2
10361.6
10211.2
10059.5
9904.42
9738.4
9565.48
9404.46
9248.77
9095.62
8943.73
8792.58
8641.93
8491.63
8341.61
8191.82
8042.22
7892.79
7743.49
7594.34
7445.31
7296.42
7147.65
6999
6850.49
6702.1
6553.83
6405.69
6257.67
6109.78
5962
5814.34
5666.78
5519.3
5371.89
5224.52
5077.13
4929.66
4782
4633.97
4485.06
4333.99
4183.15
4034.01
3884.46
3734.39
3584.14
3433.58
3282.68
3131.6
2980.46
2829.08
2677.63
2527.22
2379.32
2233.52
2087.98
1941.13
1792.06
1641.65
1492.43
1345
1196.98
1047.13
897.901
748.892
598.03
446.254
293.769
139.273
25.1393
0.0568275
-0.192634
-0.3095
-0.511646
-0.67495
-0.861096
-1.03835
-1.22045
-1.40078
-1.5833
-1.76547
14642.8
14495.6
14348.5
14201.2
14054
13906.8
13759.5
13612.2
13464.9
13317.6
13170.2
13022.9
12875.4
12728
12580.5
12433
12285.4
12137.8
11990.2
11842.4
11694.6
11546.7
11398.7
11250.6
11102.2
10953.7
10804.8
10655.5
10505.7
10354.9
10202.7
10048.2
9890.37
9729.53
9568.34
9410.28
9254.75
9100.95
8948.35
8796.58
8645.39
8494.63
8344.21
8194.07
8044.15
7894.43
7744.87
7595.48
7446.25
7297.18
7148.25
6999.46
6850.82
6702.3
6553.92
6405.67
6257.53
6109.52
5961.61
5813.81
5666.09
5518.43
5370.8
5223.17
5075.48
4927.65
4779.55
4631.04
4481.89
4332.07
4182.27
4032.79
3883.17
3733.31
3583.27
3433
3282.53
3131.93
2981.3
2830.7
2680.35
2530.78
2382.47
2235.16
2088.04
1940.31
1791.58
1642.4
1493.59
1345.16
1196.29
1046.9
897.248
747.692
597.409
446.528
295.342
142.685
30.8551
0.0808743
-0.132903
-0.301483
-0.495654
-0.670709
-0.854976
-1.0356
-1.21779
-1.3998
-1.58215
-1.76478
14643.4
14496.2
14349
14201.8
14054.5
13907.3
13760
13612.6
13465.2
13317.8
13170.4
13022.9
12875.4
12727.9
12580.2
12432.6
12284.9
12137.1
11989.2
11841.3
11693.2
11545.1
11396.7
11248.3
11099.5
10950.6
10801.2
10651.4
10500.9
10349.6
10197.2
10043.4
9888.08
9730.92
9572.53
9415.19
9259.55
9105.35
8952.26
8800
8648.36
8497.2
8346.42
8195.95
8045.75
7895.77
7746
7596.4
7446.98
7297.74
7148.65
6999.72
6850.93
6702.28
6553.77
6405.38
6257.11
6108.96
5960.9
5812.93
5665.03
5517.18
5369.35
5221.49
5073.57
4925.51
4777.25
4628.7
4479.8
4330.45
4180.93
4031.45
3881.9
3732.21
3582.37
3432.39
3282.29
3132.14
2982
2831.98
2682.24
2533.02
2384.46
2236.43
2088.55
1940.45
1791.94
1643.2
1494.5
1345.87
1197.14
1048.19
898.952
749.639
599.763
449.52
298.896
147.056
34.4634
0.0815498
-0.121091
-0.29675
-0.485598
-0.66581
-0.849622
-1.0317
-1.21435
-1.39693
-1.57979
-1.76287
14644
14496.8
14349.6
14202.3
14055.1
13907.8
13760.4
13613
13465.6
13318.1
13170.6
13023
12875.4
12727.8
12580
12432.2
12284.4
12136.4
11988.4
11840.2
11691.9
11543.5
11394.9
11246.1
11097.1
10947.8
10798
10647.8
10497
10345.5
10193
10039.4
9884.72
9728.81
9572.4
9416.55
9261.7
9107.81
8954.76
8802.38
8650.56
8499.18
8348.17
8197.48
8047.07
7896.9
7746.93
7597.14
7447.55
7298.14
7148.9
6999.83
6850.91
6702.13
6553.49
6404.98
6256.59
6108.31
5960.13
5812.03
5664
5516
5368.02
5220.01
5071.94
4923.76
4775.41
4626.82
4477.94
4328.83
4179.56
4030.23
3880.82
3731.32
3581.71
3432
3282.23
3132.44
2982.68
2833.05
2683.65
2534.59
2385.92
2237.56
2089.34
1941.05
1792.58
1643.98
1495.33
1346.66
1197.9
1049
899.894
750.762
601.404
452.006
302.468
152.308
38.8145
0.0769067
-0.11056
-0.293753
-0.478793
-0.661832
-0.845584
-1.02858
-1.21177
-1.39488
-1.57806
-1.76136
14644.6
14497.4
14350.2
14202.9
14055.6
13908.3
13760.9
13613.5
13466
13318.4
13170.8
13023.2
12875.5
12727.7
12579.9
12432
12283.9
12135.8
11987.6
11839.3
11690.8
11542.2
11393.3
11244.3
11095
10945.3
10795.3
10644.9
10493.8
10342.2
10189.8
10036.6
9882.54
9727.84
9572.84
9418.04
9263.76
9110.11
8957.08
8804.6
8652.6
8501.02
8349.79
8198.88
8048.25
7897.86
7747.69
7597.72
7447.96
7298.39
7149
6999.79
6850.73
6701.83
6553.07
6404.45
6255.94
6107.55
5959.25
5811.04
5662.88
5514.76
5366.65
5218.52
5070.33
4922.05
4773.63
4625.06
4476.29
4327.34
4178.26
4029.09
3879.84
3730.51
3581.1
3431.64
3282.13
3132.62
2983.16
2833.8
2684.62
2535.67
2386.98
2238.48
2090.09
1941.7
1793.23
1644.69
1496.1
1347.48
1198.79
1050.02
901.144
752.299
603.228
454.301
305.374
156.174
41.2489
0.0747012
-0.105246
-0.291159
-0.474594
-0.658512
-0.84238
-1.02582
-1.20934
-1.39275
-1.57621
-1.75973
14645.3
14498.1
14350.9
14203.6
14056.2
13908.9
13761.4
13614
13466.4
13318.8
13171.2
13023.4
12875.6
12727.8
12579.8
12431.8
12283.6
12135.4
11987
11838.5
11689.8
11541
11391.9
11242.7
11093.1
10943.2
10793
10642.4
10491.2
10339.6
10187.3
10034.4
9880.9
9726.97
9572.82
9418.73
9264.94
9111.55
8958.62
8806.13
8654.04
8502.33
8350.96
8199.88
8049.08
7898.52
7748.19
7598.07
7448.15
7298.44
7148.91
6999.57
6850.39
6701.37
6552.5
6403.77
6255.16
6106.66
5958.27
5809.95
5661.69
5513.47
5365.27
5217.05
5068.79
4920.46
4772.03
4623.48
4474.79
4325.97
4177.03
4028.01
3878.92
3729.77
3580.55
3431.3
3282.02
3132.76
2983.54
2834.42
2685.42
2536.58
2387.91
2239.37
2090.91
1942.47
1794
1645.5
1496.97
1348.4
1199.8
1051.16
902.457
753.763
605.033
456.393
307.95
159.303
43.06
0.0759021
-0.100979
-0.288631
-0.471362
-0.655721
-0.839749
-1.02348
-1.20724
-1.39091
-1.57458
-1.75826
14646
14498.8
14351.6
14204.3
14056.9
13909.5
13762
13614.5
13466.9
13319.3
13171.5
13023.7
12875.8
12727.9
12579.8
12431.7
12283.4
12135
11986.5
11837.8
11689
11540
11390.8
11241.3
11091.6
10941.5
10791.1
10640.4
10489.2
10337.5
10185.3
10032.7
9879.63
9726.23
9572.66
9419.09
9265.69
9112.56
8959.75
8807.28
8655.16
8503.35
8351.85
8200.63
8049.68
7898.97
7748.48
7598.22
7448.16
7298.31
7148.65
6999.18
6849.89
6700.76
6551.78
6402.95
6254.25
6105.66
5957.18
5808.78
5660.44
5512.15
5363.88
5215.6
5067.3
4918.95
4770.52
4622.01
4473.39
4324.67
4175.87
4026.99
3878.05
3729.06
3580.03
3430.97
3281.9
3132.84
2983.82
2834.87
2686.02
2537.28
2388.64
2240.11
2091.64
1943.19
1794.74
1646.28
1497.8
1349.29
1200.77
1052.23
903.642
755.077
606.529
458.037
309.919
161.436
44.2366
0.0790264
-0.0978594
-0.285974
-0.468874
-0.653298
-0.837493
-1.02146
-1.20539
-1.38925
-1.57309
-1.75693
14646.8
14499.6
14352.3
14205
14057.6
13910.2
13762.7
13615.1
13467.5
13319.8
13172
13024.1
12876.1
12728.1
12579.9
12431.7
12283.3
12134.8
11986.1
11837.3
11688.4
11539.2
11389.8
11240.2
11090.3
10940.1
10789.6
10638.7
10487.5
10335.9
10183.8
10031.4
9878.64
9725.61
9572.44
9419.24
9266.13
9113.2
8960.51
8808.08
8655.92
8504.05
8352.45
8201.11
8050.02
7899.16
7748.54
7598.14
7447.95
7297.97
7148.19
6998.6
6849.2
6699.97
6550.9
6401.98
6253.2
6104.54
5955.98
5807.51
5659.12
5510.77
5362.45
5214.14
5065.83
4917.48
4769.08
4620.61
4472.07
4323.45
4174.77
4026.02
3877.23
3728.4
3579.53
3430.64
3281.75
3132.87
2984.02
2835.23
2686.5
2537.86
2389.29
2240.79
2092.34
1943.91
1795.49
1647.07
1498.64
1350.2
1201.74
1053.27
904.775
756.309
607.89
459.485
311.541
162.97
45.1037
0.082387
-0.095503
-0.283061
-0.466763
-0.651209
-0.835507
-1.0197
-1.20376
-1.38778
-1.57177
-1.75573
14647.6
14500.4
14353.1
14205.8
14058.4
13910.9
13763.4
13615.8
13468.1
13320.3
13172.5
13024.6
12876.5
12728.4
12580.2
12431.8
12283.3
12134.7
11985.9
11837
11687.9
11538.6
11389.1
11239.3
11089.3
10939
10788.4
10637.5
10486.2
10334.6
10182.7
10030.4
9877.85
9725.09
9572.19
9419.25
9266.36
9113.58
8960.97
8808.56
8656.39
8504.45
8352.76
8201.31
8050.1
7899.12
7748.37
7597.83
7447.52
7297.42
7147.53
6997.83
6848.33
6699.01
6549.85
6400.86
6252
6103.28
5954.67
5806.15
5657.71
5509.33
5360.99
5212.67
5064.36
4916.03
4767.67
4619.26
4470.8
4322.29
4173.72
4025.1
3876.44
3727.75
3579.04
3430.32
3281.59
3132.86
2984.17
2835.51
2686.91
2538.35
2389.86
2241.41
2093
1944.61
1796.23
1647.85
1499.47
1351.08
1202.68
1054.25
905.816
757.399
609.021
460.601
312.693
163.938
45.5942
0.0858661
-0.0935334
-0.280279
-0.46478
-0.649381
-0.833744
-1.01815
-1.20232
-1.38648
-1.57059
-1.75468
14648.5
14501.3
14354
14206.6
14059.2
13911.7
13764.2
13616.5
13468.8
13321
13173.1
13025.1
12877
12728.8
12580.5
12432.1
12283.5
12134.8
11985.9
11836.9
11687.6
11538.2
11388.6
11238.7
11088.6
10938.2
10787.5
10636.6
10485.3
10333.7
10181.8
10029.6
9877.23
9724.64
9571.93
9419.16
9266.41
9113.73
8961.18
8808.79
8656.59
8504.59
8352.81
8201.26
8049.93
7898.83
7747.95
7597.3
7446.86
7296.65
7146.65
6996.85
6847.26
6697.85
6548.63
6399.56
6250.65
6101.88
5953.23
5804.68
5656.22
5507.82
5359.48
5211.17
5062.88
4914.59
4766.28
4617.94
4469.56
4321.15
4172.69
4024.2
3875.67
3727.12
3578.56
3429.98
3281.39
3132.82
2984.26
2835.73
2687.23
2538.78
2390.36
2241.97
2093.61
1945.27
1796.94
1648.61
1500.27
1351.93
1203.57
1055.18
906.769
758.363
609.97
461.472
313.484
164.449
45.7181
0.0891657
-0.0914766
-0.278067
-0.462844
-0.64778
-0.832194
-1.01682
-1.20106
-1.38534
-1.56956
-1.75374
14649.4
14502.2
14354.9
14207.6
14060.1
13912.6
13765
13617.4
13469.6
13321.7
13173.8
13025.8
12877.6
12729.4
12581
12432.5
12283.8
12135
11986
11836.9
11687.6
11538
11388.3
11238.3
11088.1
10937.7
10786.9
10635.9
10484.6
10333
10181.2
10029.1
9876.75
9724.27
9571.67
9419.01
9266.34
9113.72
8961.19
8808.79
8656.55
8504.48
8352.61
8200.95
8049.51
7898.29
7747.29
7596.52
7445.97
7295.65
7145.54
6995.66
6845.98
6696.5
6547.21
6398.09
6249.14
6100.33
5951.66
5803.09
5654.62
5506.23
5357.91
5209.62
5061.37
4913.12
4764.88
4616.62
4468.33
4320.02
4171.68
4023.31
3874.91
3726.49
3578.06
3429.62
3281.17
3132.73
2984.3
2835.89
2687.5
2539.14
2390.8
2242.48
2094.19
1945.9
1797.62
1649.33
1501.04
1352.74
1204.41
1056.05
907.65
759.228
610.784
462.164
314.006
164.608
45.5493
0.0911301
-0.0892929
-0.276613
-0.461185
-0.646436
-0.830873
-1.01567
-1.19997
-1.38434
-1.56864
-1.75291
14650.4
14503.2
14355.9
14208.6
14061.1
13913.6
13766
13618.3
13470.5
13322.6
13174.6
13026.5
12878.3
12730
12581.6
12433
12284.3
12135.4
11986.3
11837.1
11687.7
11538.1
11388.2
11238.2
11087.9
10937.3
10786.5
10635.5
10484.1
10332.5
10180.7
10028.6
9876.38
9723.96
9571.42
9418.81
9266.18
9113.57
8961.03
8808.59
8656.29
8504.14
8352.17
8200.4
8048.84
7897.5
7746.37
7595.48
7444.82
7294.4
7144.2
6994.23
6844.48
6694.93
6545.59
6396.43
6247.45
6098.63
5949.94
5801.38
5652.92
5504.55
5356.26
5208.02
5059.81
4911.63
4763.46
4615.28
4467.09
4318.89
4170.66
4022.41
3874.14
3725.85
3577.55
3429.24
3280.92
3132.61
2984.3
2836
2687.71
2539.44
2391.19
2242.95
2094.72
1946.49
1798.27
1650.03
1501.78
1353.52
1205.23
1056.88
908.483
760.032
611.522
462.768
314.398
164.634
45.2575
0.0923829
-0.0873409
-0.275493
-0.459838
-0.645354
-0.829767
-1.01472
-1.19903
-1.38349
-1.56784
-1.75218
14651.5
14504.3
14357
14209.6
14062.2
13914.6
13767
13619.3
13471.5
13323.5
13175.5
13027.4
12879.2
12730.8
12582.3
12433.7
12284.9
12135.9
11986.8
11837.5
11688
11538.3
11388.4
11238.3
11087.9
10937.3
10786.4
10635.3
10483.9
10332.3
10180.4
10028.4
9876.12
9723.71
9571.18
9418.58
9265.94
9113.31
8960.72
8808.22
8655.83
8503.58
8351.5
8199.61
8047.92
7896.45
7745.2
7594.19
7443.42
7292.89
7142.6
6992.55
6842.73
6693.14
6543.75
6394.57
6245.57
6096.74
5948.06
5799.52
5651.09
5502.77
5354.52
5206.34
5058.2
4910.09
4762
4613.92
4465.83
4317.74
4169.63
4021.5
3873.35
3725.19
3577.02
3428.83
3280.64
3132.45
2984.25
2836.07
2687.88
2539.71
2391.54
2243.38
2095.22
1947.05
1798.89
1650.7
1502.5
1354.29
1206.02
1057.69
909.294
760.818
612.246
463.378
314.8
164.75
45.0146
0.0939469
-0.085946
-0.274488
-0.458831
-0.644486
-0.828886
-1.01393
-1.19824
-1.38276
-1.56714
-1.75152
14652.7
14505.5
14358.2
14210.8
14063.3
13915.8
13768.1
13620.4
13472.5
13324.6
13176.5
13028.4
12880.1
12731.7
12583.2
12434.5
12285.6
12136.6
11987.4
11838.1
11688.5
11538.7
11388.8
11238.5
11088.1
10937.4
10786.5
10635.3
10483.9
10332.2
10180.3
10028.2
9875.96
9723.52
9570.97
9418.33
9265.64
9112.94
8960.28
8807.68
8655.18
8502.81
8350.6
8198.57
8046.74
7895.13
7743.75
7592.61
7441.73
7291.1
7140.72
6990.6
6840.73
6691.09
6541.68
6392.48
6243.48
6094.66
5946.01
5797.5
5649.13
5500.86
5352.68
5204.57
5056.52
4908.5
4760.51
4612.53
4464.55
4316.57
4168.58
4020.58
3872.56
3724.53
3576.48
3428.42
3280.35
3132.27
2984.19
2836.1
2688.02
2539.94
2391.86
2243.77
2095.68
1947.59
1799.48
1651.36
1503.21
1355.03
1206.8
1058.5
910.111
761.623
613.015
464.079
315.345
165.155
44.9835
0.095812
-0.0854437
-0.273676
-0.458245
-0.643854
-0.828265
-1.01332
-1.19761
-1.38216
-1.56653
-1.75093
14654
14506.7
14359.4
14212
14064.5
13917
13769.3
13621.6
13473.7
13325.7
13177.7
13029.5
12881.2
12732.7
12584.2
12435.4
12286.6
12137.5
11988.3
11838.8
11689.2
11539.4
11389.3
11239.1
11088.5
10937.8
10786.8
10635.5
10484.1
10332.3
10180.4
10028.2
9875.9
9723.41
9570.78
9418.06
9265.29
9112.49
8959.71
8806.98
8654.34
8501.83
8349.46
8197.27
8045.29
7893.53
7742.01
7590.74
7439.74
7289.01
7138.55
6988.36
6838.44
6688.77
6539.34
6390.15
6241.17
6092.38
5943.77
5795.32
5647.01
5498.82
5350.73
5202.72
5054.76
4906.85
4758.97
4611.1
4463.24
4315.39
4167.52
4019.64
3871.75
3723.84
3575.92
3427.98
3280.03
3132.07
2984.1
2836.12
2688.13
2540.14
2392.15
2244.14
2096.13
1948.1
1800.06
1651.99
1503.9
1355.77
1207.59
1059.32
910.954
762.478
613.871
464.931
316.129
165.988
45.2886
0.0970213
-0.0860339
-0.273231
-0.458144
-0.643508
-0.827936
-1.01288
-1.19716
-1.38168
-1.56601
-1.7504
14655.3
14508.1
14360.7
14213.3
14065.8
13918.3
13770.6
13622.8
13475
13327
13178.9
13030.7
12882.4
12733.9
12585.3
12436.6
12287.6
12138.5
11989.3
11839.8
11690.1
11540.2
11390.1
11239.8
11089.2
10938.4
10787.3
10636
10484.4
10332.6
10180.6
10028.4
9875.95
9723.36
9570.63
9417.8
9264.89
9111.96
8959.02
8806.13
8653.32
8500.63
8348.08
8195.71
8043.56
7891.63
7739.96
7588.56
7437.44
7286.6
7136.06
6985.81
6835.85
6686.15
6536.73
6387.55
6238.6
6089.86
5941.32
5792.95
5644.73
5496.64
5348.65
5200.75
5052.91
4905.12
4757.36
4609.63
4461.9
4314.17
4166.44
4018.69
3870.93
3723.15
3575.35
3427.53
3279.7
3131.85
2983.99
2836.11
2688.22
2540.33
2392.41
2244.49
2096.55
1948.6
1800.62
1652.62
1504.58
1356.51
1208.38
1060.16
911.836
763.398
614.834
465.954
317.185
167.299
45.9851
0.096382
-0.0873203
-0.273717
-0.458526
-0.643487
-0.827908
-1.01261
-1.19688
-1.38132
-1.56558
-1.74994
14656.7
14509.5
14362.1
14214.7
14067.2
13919.7
13772
13624.2
13476.4
13328.4
13180.3
13032.1
12883.7
12735.3
12586.6
12437.8
12288.9
12139.8
11990.5
11840.9
11691.2
11541.3
11391.1
11240.7
11090.1
10939.2
10788.1
10636.7
10485
10333.1
10181
10028.7
9876.11
9723.39
9570.52
9417.53
9264.46
9111.34
8958.22
8805.13
8652.11
8499.2
8346.45
8193.87
8041.52
7889.41
7737.57
7586.02
7434.77
7283.84
7133.22
6982.91
6832.91
6683.22
6533.8
6384.66
6235.76
6087.1
5938.64
5790.38
5642.27
5494.3
5346.44
5198.67
5050.96
4903.31
4755.7
4608.1
4460.51
4312.92
4165.33
4017.72
3870.09
3722.44
3574.77
3427.07
3279.36
3131.62
2983.86
2836.09
2688.3
2540.49
2392.66
2244.82
2096.96
1949.08
1801.17
1653.24
1505.26
1357.25
1209.18
1061.03
912.762
764.384
615.897
467.12
318.459
168.93
46.9867
0.0932165
-0.0886456
-0.275362
-0.459173
-0.643798
-0.828136
-1.01251
-1.19675
-1.38105
-1.56524
-1.74953
14658.2
14511
14363.6
14216.2
14068.7
13921.2
13773.5
13625.7
13477.9
13329.9
13181.8
13033.6
12885.2
12736.7
12588.1
12439.3
12290.3
12141.2
11991.8
11842.3
11692.5
11542.6
11392.4
11241.9
11091.2
10940.2
10789
10637.5
10485.8
10333.8
10181.5
10029.1
9876.37
9723.49
9570.44
9417.26
9263.99
9110.65
8957.29
8803.96
8650.7
8497.54
8344.54
8191.73
8039.16
7886.84
7734.82
7583.11
7431.72
7280.68
7129.98
6979.63
6829.61
6679.92
6530.53
6381.44
6232.63
6084.06
5935.72
5787.58
5639.61
5491.78
5344.07
5196.45
5048.91
4901.41
4753.95
4606.51
4459.08
4311.64
4164.19
4016.72
3869.23
3721.71
3574.17
3426.6
3279
3131.37
2983.72
2836.05
2688.35
2540.63
2392.89
2245.13
2097.35
1949.54
1801.71
1653.85
1505.94
1358
1210
1061.92
913.73
765.429
617.036
468.373
319.835
170.615
48.0206
0.0881128
-0.0891815
-0.277952
-0.459531
-0.644464
-0.828486
-1.01255
-1.19675
-1.38087
-1.56498
-1.74917
14659.8
14512.5
14365.2
14217.8
14070.3
13922.7
13775.1
13627.3
13479.5
13331.5
13183.4
13035.2
12886.8
12738.3
12589.7
12440.9
12291.9
12142.7
11993.4
11843.8
11694.1
11544
11393.8
11243.3
11092.5
10941.5
10790.2
10638.6
10486.8
10334.6
10182.3
10029.6
9876.75
9723.68
9570.42
9417.01
9263.48
9109.88
8956.25
8802.63
8649.07
8495.63
8342.35
8189.27
8036.43
7883.89
7731.66
7579.77
7428.24
7277.09
7126.32
6975.92
6825.89
6676.22
6526.89
6377.88
6229.16
6080.72
5932.52
5784.54
5636.73
5489.08
5341.54
5194.11
5046.74
4899.42
4752.14
4604.87
4457.6
4310.32
4163.02
4015.7
3868.35
3720.97
3573.56
3426.11
3278.63
3131.11
2983.57
2835.99
2688.39
2540.76
2393.11
2245.43
2097.72
1949.99
1802.24
1654.45
1506.62
1358.75
1210.82
1062.83
914.736
766.518
618.226
469.663
321.199
172.112
48.7708
0.0838475
-0.0892988
-0.280229
-0.459663
-0.645372
-0.8288
-1.01269
-1.19683
-1.38075
-1.56479
-1.74886
14661.4
14514.2
14366.9
14219.5
14072
13924.4
13776.8
13629
13481.2
13333.2
13185.1
13036.9
12888.6
12740.1
12591.4
12442.6
12293.7
12144.5
11995.2
11845.6
11695.8
11545.7
11395.5
11244.9
11094.1
10943
10791.6
10639.9
10487.9
10335.7
10183.1
10030.3
9877.26
9723.96
9570.45
9416.77
9262.95
9109.04
8955.08
8801.12
8647.22
8493.44
8339.83
8186.43
8033.31
7880.5
7728.04
7575.96
7424.28
7273.01
7122.17
6971.74
6821.72
6672.08
6522.82
6373.91
6225.33
6077.05
5929.03
5781.23
5633.63
5486.17
5338.85
5191.61
5044.45
4897.33
4750.24
4603.16
4456.07
4308.96
4161.83
4014.67
3867.46
3720.22
3572.94
3425.61
3278.25
3130.84
2983.4
2835.93
2688.42
2540.88
2393.31
2245.71
2098.09
1950.44
1802.75
1655.04
1507.29
1359.51
1211.66
1063.77
915.777
767.651
619.461
470.987
322.525
173.462
49.1463
0.0844927
-0.090142
-0.281161
-0.459919
-0.646221
-0.828927
-1.01291
-1.19693
-1.38069
-1.56467
-1.7486
14663.2
14515.9
14368.6
14221.2
14073.7
13926.2
13778.6
13630.8
13483
13335
13187
13038.8
12890.5
12742
12593.4
12444.6
12295.6
12146.5
11997.1
11847.5
11697.7
11547.7
11397.4
11246.8
11095.9
10944.7
10793.2
10641.5
10489.4
10337
10184.2
10031.2
9877.91
9724.35
9570.55
9416.55
9262.39
9108.11
8953.77
8799.42
8645.13
8490.95
8336.95
8183.19
8029.73
7876.62
7723.9
7571.61
7419.76
7268.38
7117.47
6967.02
6817.02
6667.45
6518.29
6369.5
6221.1
6073.02
5925.22
5777.65
5630.27
5483.06
5335.97
5188.97
5042.04
4895.15
4748.27
4601.39
4454.5
4307.58
4160.62
4013.62
3866.57
3719.47
3572.32
3425.12
3277.87
3130.58
2983.24
2835.86
2688.44
2540.99
2393.5
2245.99
2098.44
1950.87
1803.27
1655.63
1507.97
1360.27
1212.52
1064.72
916.846
768.838
620.756
472.394
323.909
174.983
49.4451
0.0892758
-0.0927082
-0.281206
-0.460694
-0.646794
-0.829037
-1.01329
-1.19706
-1.3807
-1.56459
-1.74838
14665
14517.8
14370.4
14223
14075.6
13928
13780.4
13632.7
13484.9
13337
13188.9
13040.8
12892.5
12744
12595.4
12446.7
12297.7
12148.6
11999.3
11849.7
11699.9
11549.8
11399.5
11248.9
11098
10946.7
10795.2
10643.3
10491
10338.4
10185.5
10032.3
9878.72
9724.86
9570.73
9416.36
9261.8
9107.1
8952.32
8797.51
8642.75
8488.11
8333.67
8179.49
8025.64
7872.19
7719.17
7566.64
7414.62
7263.12
7112.14
6961.69
6811.74
6662.27
6513.24
6364.58
6216.44
6068.61
5921.06
5773.76
5626.66
5479.72
5332.91
5186.18
5039.51
4892.87
4746.23
4599.58
4452.89
4306.17
4159.39
4012.56
3865.67
3718.72
3571.71
3424.63
3277.5
3130.32
2983.08
2835.8
2688.47
2541.1
2393.7
2246.26
2098.79
1951.29
1803.77
1656.22
1508.64
1361.03
1213.38
1065.7
917.946
770.086
622.136
473.949
325.45
176.884
50.1035
0.0909667
-0.0947306
-0.281482
-0.46181
-0.647281
-0.829322
-1.0137
-1.19721
-1.38079
-1.56456
-1.74821
14666.9
14519.6
14372.3
14224.9
14077.5
13930
13782.4
13634.7
13486.9
13339
13191
13042.9
12894.6
12746.2
12597.7
12449
12300.1
12151
12001.6
11852.1
11702.3
11552.2
11401.9
11251.2
11100.3
10949
10797.3
10645.3
10492.9
10340.2
10187.1
10033.6
9879.7
9725.51
9571
9416.22
9261.2
9106.01
8950.71
8795.36
8640.06
8484.89
8329.92
8175.26
8020.96
7867.11
7713.77
7560.97
7408.75
7257.13
7106.11
6955.67
6805.8
6656.47
6507.65
6359.35
6211.35
6063.77
5916.52
5769.54
5622.77
5476.16
5329.66
5183.24
5036.87
4890.5
4744.12
4597.71
4451.26
4304.74
4158.16
4011.51
3864.78
3717.98
3571.11
3424.16
3277.15
3130.07
2982.93
2835.74
2688.5
2541.21
2393.89
2246.53
2099.14
1951.72
1804.27
1656.8
1509.31
1361.8
1214.26
1066.69
919.077
771.396
623.614
475.745
327.349
179.312
51.5015
0.0884452
-0.0960607
-0.281978
-0.462967
-0.647802
-0.82988
-1.01416
-1.19739
-1.38093
-1.56457
-1.74809
14668.8
14521.6
14374.3
14226.9
14079.5
13932
13784.4
13636.8
13489
13341.2
13193.2
13045.1
12896.9
12748.6
12600.1
12451.4
12302.5
12153.5
12004.2
11854.7
11704.9
11554.9
11404.6
11253.9
11102.9
10951.5
10799.8
10647.7
10495.2
10342.2
10188.9
10035.1
9880.89
9726.32
9571.38
9416.12
9260.59
9104.83
8948.93
8792.96
8637.02
8481.22
8325.64
8170.41
8015.59
7861.29
7707.57
7554.47
7402.05
7250.32
7099.26
6948.87
6799.11
6649.95
6501.35
6353.29
6205.67
6058.45
5911.57
5764.97
5618.58
5472.35
5326.22
5180.15
5034.11
4888.05
4741.96
4595.82
4449.61
4303.32
4156.94
4010.48
3863.92
3717.27
3570.53
3423.71
3276.82
3129.84
2982.8
2835.7
2688.54
2541.34
2394.09
2246.8
2099.48
1952.13
1804.76
1657.37
1509.97
1362.55
1215.12
1067.69
920.229
772.75
625.195
477.696
329.713
182.206
53.5397
0.0874504
-0.0985419
-0.282637
-0.464418
-0.648265
-0.83064
-1.01457
-1.19768
-1.38111
-1.56461
-1.74802
14670.9
14523.6
14376.3
14229
14081.6
13934.1
13786.6
13639
13491.2
13343.4
13195.5
13047.5
12899.3
12751.1
12602.6
12454
12305.2
12156.2
12007
11857.5
11707.8
11557.8
11407.5
11256.8
11105.8
10954.4
10802.6
10650.4
10497.7
10344.5
10190.9
10036.9
9882.31
9727.32
9571.9
9416.1
9259.96
9103.55
8946.95
8790.26
8633.58
8477.03
8320.74
8164.84
8009.42
7854.59
7700.43
7547.01
7394.37
7242.53
7091.46
6941.15
6791.55
6642.61
6494.32
6346.6
6199.38
6052.59
5906.16
5760.02
5614.07
5468.28
5322.57
5176.9
5031.23
4885.53
4739.75
4593.9
4447.95
4301.9
4155.74
4009.47
3863.09
3716.59
3570
3423.3
3276.52
3129.65
2982.7
2835.68
2688.6
2541.47
2394.29
2247.07
2099.82
1952.54
1805.24
1657.93
1510.61
1363.29
1215.97
1068.67
921.376
774.114
626.827
479.699
332.351
185.402
55.9914
0.081833
-0.101139
-0.283893
-0.465847
-0.649113
-0.831464
-1.01501
-1.19802
-1.3813
-1.56468
-1.74798
14673
14525.7
14378.4
14231.1
14083.7
13936.3
13788.8
13641.2
13493.5
13345.8
13197.9
13050
12901.9
12753.7
12605.3
12456.8
12308.1
12159.2
12010
11860.6
11711
11561
11410.7
11260.1
11109
10957.6
10805.7
10653.4
10500.6
10347.2
10193.3
10038.9
9883.99
9728.53
9572.58
9416.17
9259.35
9102.19
8944.78
8787.22
8629.66
8472.23
8315.1
8158.42
8002.3
7846.86
7692.2
7538.41
7385.54
7233.6
7082.55
6932.37
6782.99
6634.35
6486.42
6339.15
6192.42
6046.16
5900.27
5754.66
5609.24
5463.95
5318.73
5173.51
5028.26
4882.94
4737.51
4591.98
4446.32
4300.52
4154.58
4008.51
3862.3
3715.97
3569.51
3422.94
3276.26
3129.49
2982.62
2835.69
2688.68
2541.62
2394.5
2247.35
2100.16
1952.94
1805.71
1658.47
1511.23
1364
1216.78
1069.61
922.476
775.426
628.416
481.658
334.91
188.602
58.4273
0.0753834
-0.103497
-0.285748
-0.467201
-0.650011
-0.832241
-1.0154
-1.19835
-1.38148
-1.56475
-1.74797
14675.1
14527.9
14380.6
14233.3
14085.9
13938.5
13791.1
13643.5
13495.9
13348.2
13200.4
13052.6
12904.6
12756.4
12608.1
12459.7
12311.1
12162.3
12013.2
11863.9
11714.4
11564.5
11414.2
11263.6
11112.6
10961.2
10809.2
10656.8
10503.8
10350.2
10196.1
10041.3
9885.97
9730
9573.45
9416.35
9258.75
9100.72
8942.37
8783.81
8625.2
8466.72
8308.59
8150.98
7994.03
7837.85
7682.61
7528.4
7375.29
7223.29
7072.34
6922.36
6773.28
6625
6477.58
6330.85
6184.73
6039.09
5893.84
5748.87
5604.07
5459.37
5314.7
5170
5025.21
4880.32
4735.27
4590.07
4444.71
4299.19
4153.48
4007.62
3861.59
3715.41
3569.08
3422.63
3276.06
3129.37
2982.59
2835.73
2688.79
2541.78
2394.73
2247.63
2100.49
1953.33
1806.16
1658.98
1511.81
1364.66
1217.54
1070.48
923.483
776.62
629.855
483.425
337.147
191.304
60.533
0.0704348
-0.104389
-0.287916
-0.467974
-0.650818
-0.832805
-1.01568
-1.19859
-1.3816
-1.56481
-1.74797
14677.3
14530
14382.8
14235.5
14088.2
13940.8
13793.4
13645.9
13498.4
13350.7
13203
13055.2
12907.3
12759.3
12611.1
12462.8
12314.3
12165.6
12016.7
11867.5
11718
11568.2
11418.1
11267.5
11116.6
10965.1
10813.1
10660.6
10507.5
10353.7
10199.3
10044.1
9888.31
9731.77
9574.55
9416.67
9258.18
9099.16
8939.7
8779.95
8620.09
8460.33
8300.96
8142.24
7984.29
7827.23
7671.27
7516.58
7363.23
7211.23
7060.46
6910.81
6762.17
6614.52
6467.69
6321.66
6176.28
6031.42
5886.93
5742.69
5598.58
5454.54
5310.49
5166.37
5022.11
4877.68
4733.05
4588.22
4443.18
4297.93
4152.47
4006.81
3860.96
3714.93
3568.74
3422.4
3275.92
3129.32
2982.61
2835.81
2688.92
2541.97
2394.97
2247.91
2100.82
1953.71
1806.59
1659.46
1512.35
1365.26
1218.22
1071.24
924.358
777.633
631.052
484.851
338.952
193.273
62.0934
0.0673786
-0.104497
-0.289439
-0.468298
-0.651279
-0.83305
-1.0158
-1.19869
-1.38164
-1.56482
-1.74796
14679.5
14532.3
14385
14237.8
14090.5
13943.2
13795.8
13648.4
13500.9
13353.3
13205.7
13058
12910.2
12762.3
12614.2
12466
12317.7
12169.1
12020.3
11871.3
11721.9
11572.3
11422.2
11271.8
11120.9
10969.5
10817.5
10664.9
10511.6
10357.6
10202.9
10047.4
9891.04
9733.89
9575.92
9417.17
9257.67
9097.5
8936.76
8775.59
8614.17
8452.78
8291.83
8131.82
7972.87
7814.81
7657.9
7502.5
7348.86
7196.93
7046.47
6897.29
6749.27
6602.34
6456.41
6311.3
6166.85
6022.92
5879.36
5736.02
5592.78
5449.53
5306.2
5162.71
5019
4875.07
4730.89
4586.44
4441.74
4296.78
4151.57
4006.12
3860.44
3714.56
3568.5
3422.26
3275.86
3129.34
2982.69
2835.94
2689.1
2542.19
2395.23
2248.21
2101.16
1954.08
1807
1659.91
1512.84
1365.8
1218.81
1071.89
925.07
778.419
631.936
485.826
340.13
194.423
62.9228
0.0679103
-0.10435
-0.289396
-0.468305
-0.651309
-0.832989
-1.01572
-1.19864
-1.38159
-1.56478
-1.74796
14681.7
14534.5
14387.3
14240.1
14092.8
13945.5
13798.2
13650.9
13503.5
13356
13208.5
13060.9
12913.2
12765.4
12617.5
12469.4
12321.2
12172.8
12024.2
11875.3
11726.1
11576.6
11426.7
11276.4
11125.6
10974.2
10822.3
10669.6
10516.2
10362
10207
10051.1
9894.23
9736.4
9577.61
9417.88
9257.24
9095.75
8933.49
8770.57
8607.17
8443.77
8280.92
8119.38
7959.33
7800.01
7641.88
7485.62
7331.73
7180.06
7030.07
6881.51
6734.27
6588.31
6443.47
6299.5
6156.21
6013.43
5871
5728.78
5586.58
5444.28
5301.79
5159.04
5015.99
4872.6
4728.88
4584.82
4440.45
4295.78
4150.81
4005.57
3860.06
3714.32
3568.37
3422.22
3275.91
3129.44
2982.84
2836.13
2689.33
2542.45
2395.51
2248.52
2101.5
1954.45
1807.39
1660.33
1513.29
1366.27
1219.3
1072.41
925.605
778.961
632.476
486.319
340.608
194.72
62.9571
0.0706424
-0.103465
-0.288398
-0.467573
-0.650838
-0.832603
-1.01545
-1.19845
-1.38146
-1.56471
-1.74795
14684
14536.8
14389.6
14242.4
14095.2
13947.9
13800.7
13653.4
13506.1
13358.7
13211.3
13063.8
12916.2
12768.6
12620.8
12472.9
12324.9
12176.6
12028.2
11879.5
11730.5
11581.2
11431.5
11281.4
11130.7
10979.5
10827.6
10674.9
10521.5
10367.1
10211.7
10055.4
9897.94
9739.38
9579.69
9418.86
9256.92
9093.86
8929.68
8764.62
8599
8433.09
8267.52
8103.86
7943.17
7782.36
7622.71
7465.45
7311.4
7160.35
7011.03
6863.24
6717.02
6572.28
6428.76
6286.19
6144.32
6002.95
5861.89
5720.95
5579.96
5438.75
5297.23
5155.34
5013.03
4870.26
4727.06
4583.42
4439.4
4295
4150.26
4005.2
3859.85
3714.24
3568.38
3422.31
3276.06
3129.64
2983.08
2836.4
2689.62
2542.75
2395.83
2248.85
2101.84
1954.81
1807.77
1660.72
1513.69
1366.68
1219.71
1072.81
925.978
779.273
632.697
486.367
340.427
194.233
62.2333
0.0754344
-0.101647
-0.286277
-0.466302
-0.64984
-0.831902
-1.01497
-1.19811
-1.38125
-1.5646
-1.74791
14686.2
14539
14391.9
14244.7
14097.5
13950.3
13803.2
13655.9
13508.7
13361.4
13214.1
13066.8
12919.3
12771.8
12624.2
12476.5
12328.7
12180.6
12032.4
11884
11735.2
11586.1
11436.7
11286.7
11136.3
10985.2
10833.4
10680.8
10527.3
10372.8
10217.1
10060.3
9902.25
9742.89
9582.19
9420.13
9256.62
9091.56
8925.22
8757.73
8589.19
8419.75
8250.26
8085.24
7925.5
7762.03
7600.06
7441.34
7287.15
7137.63
6989.23
6842.29
6697.29
6554.08
6412.24
6271.41
6131.25
5991.52
5852.02
5712.56
5572.93
5432.97
5292.56
5151.64
5010.14
4868.07
4725.42
4582.24
4438.59
4294.49
4149.97
4005.07
3859.85
3714.33
3568.56
3422.55
3276.34
3129.94
2983.4
2836.74
2689.96
2543.1
2396.18
2249.21
2102.2
1955.17
1808.13
1661.09
1514.06
1367.04
1220.05
1073.11
926.217
779.404
632.669
486.074
339.729
193.134
60.924
0.0803057
-0.0988907
-0.283772
-0.464633
-0.648556
-0.83101
-1.01434
-1.19768
-1.38099
-1.56445
-1.74784
14688.5