/*--------------------------------*- C++ -*----------------------------------*\
| =========                 |                                                 |
| \\      /  F ield         | OpenFOAM: The Open Source CFD Toolbox           |
|  \\    /   O peration     | Version:  v2106                                 |
|   \\  /    A nd           | Website:  www.openfoam.com                      |
|    \\/     M anipulation  |                                                 |
\*---------------------------------------------------------------------------*/
FoamFile
{
    version     2.0;
    format      ascii;
    arch        "LSB;label=32;scalar=64";
    class       volScalarField;
    location    "1.6";
    object      p_rgh;
}
// * * * * * * * * * * * * * * * * * * * * * * * * * * * * * * * * * * * * * //

dimensions      [1 -1 -2 0 0 0 0];

internalField   nonuniform List<scalar> 
29678
(
0.274068
0.270334
0.262541
0.250661
0.235079
0.215854
0.193084
0.167401
0.137468
0.100009
0.0551541
0.00516477
-0.0500949
-0.111458
-0.17973
-0.255781
-0.340584
-0.435362
-0.541643
-0.661414
-0.797352
-0.953162
-1.13412
-1.34803
-1.60717
-1.93251
-2.36365
-2.98275
-3.97417
-5.76944
-9.31456
-16.1788
-28.5006
-52.4261
-81.3723
-94.459
-101.742
-106.696
-110.601
-113.906
-116.841
-119.519
-121.994
-124.303
-126.458
-128.463
-130.346
-132.128
-133.804
-135.361
-136.804
-138.131
-139.337
-140.418
-141.376
-142.208
-142.912
-143.485
-143.928
-144.243
-144.433
-144.513
-144.501
-144.423
-144.333
-144.322
-144.57
-145.49
-147.71
-153.177
-156.348
-157.764
-160.341
-163.506
-166.76
-170.483
-174.9
-179.846
-184.695
-189.436
-194.233
-197.157
-197.233
-195.022
-192.44
-192.52
-195.66
-200.109
-201.002
-200.241
-201.835
-205.56
-208.018
-210.457
-214.793
-220.269
-226.818
-234.687
-45.7608
0.0207676
-0.143795
-0.0372166
-0.0725663
-0.0389113
-0.0428295
-0.0327363
-0.0304501
-0.0253717
-0.0229757
-0.0202238
0.821085
0.810209
0.788357
0.755392
0.711601
0.656614
0.590219
0.513096
0.421242
0.310116
0.181097
0.0369268
-0.12371
-0.302978
-0.503083
-0.726486
-0.976042
-1.25522
-1.56836
-1.92106
-2.32077
-2.77756
-3.30525
-3.92307
-4.65856
-5.55267
-6.66843
-8.10308
-9.99526
-12.4984
-15.754
-20.2788
-28.2055
-47.079
-72.8448
-86.7135
-95.2535
-101.255
-105.998
-109.997
-113.497
-116.644
-119.511
-122.154
-124.606
-126.886
-129.029
-131.037
-132.91
-134.655
-136.275
-137.771
-139.138
-140.378
-141.492
-142.482
-143.35
-144.096
-144.723
-145.237
-145.647
-145.971
-146.231
-146.457
-146.696
-147.015
-147.525
-148.406
-150.162
-154.079
-157.772
-159.762
-162.159
-165.084
-168.187
-171.588
-175.343
-179.277
-183.259
-187.492
-191.795
-195.05
-195.801
-194.45
-192.847
-192.549
-194.463
-197.73
-199.796
-200.076
-200.94
-203.642
-205.724
-207.583
-211.295
-215.921
-221.256
-228.602
-51.4412
-0.0351435
-0.100665
-0.0335938
-0.0518022
-0.0311692
-0.0333776
-0.026698
-0.0248558
-0.0212459
-0.0198355
-0.0180642
1.3793
1.36188
1.3267
1.27339
1.2017
1.1107
0.999718
0.8674
0.710256
0.526508
0.316854
0.0809105
-0.183371
-0.47887
-0.808935
-1.17746
-1.589
-2.04908
-2.56453
-3.14416
-3.79952
-4.54601
-5.40426
-6.40191
-7.57667
-8.9815
-10.694
-12.8308
-15.5702
-19.1937
-24.2093
-31.5782
-42.25
-55.9451
-69.9896
-80.8922
-89.2745
-95.9207
-101.371
-105.993
-110.033
-113.643
-116.915
-119.908
-122.67
-125.242
-127.65
-129.898
-131.978
-133.899
-135.674
-137.309
-138.807
-140.17
-141.403
-142.508
-143.49
-144.355
-145.11
-145.765
-146.337
-146.846
-147.32
-147.799
-148.34
-149.026
-149.974
-151.332
-153.331
-155.999
-158.657
-160.98
-163.451
-166.161
-169.058
-172.168
-175.493
-178.947
-182.427
-185.875
-189.078
-191.498
-192.65
-192.815
-192.788
-193.362
-194.945
-196.97
-198.631
-199.918
-201.632
-203.877
-206.377
-208.783
-211.916
-215.647
-219.683
-225.19
-61.6595
-0.0111015
-0.0409332
-0.025577
-0.0358105
-0.0269276
-0.027257
-0.0239424
-0.0221976
-0.0202696
-0.0186821
-0.0173747
1.95529
1.93135
1.88295
1.80946
1.71022
1.58375
1.42885
1.24301
1.02306
0.768282
0.47872
0.152669
-0.212938
-0.621873
-1.07856
-1.58817
-2.15674
-2.7915
-3.50136
-4.29764
-5.19506
-6.21294
-7.37649
-8.7183
-10.2808
-12.1206
-14.3171
-16.9843
-20.2826
-24.4291
-29.6955
-36.3382
-44.5453
-54.5577
-65.7905
-75.9791
-84.4749
-91.5218
-97.4607
-102.573
-107.064
-111.076
-114.706
-118.023
-121.075
-123.899
-126.527
-128.977
-131.246
-133.339
-135.271
-137.054
-138.692
-140.191
-141.557
-142.795
-143.914
-144.92
-145.825
-146.642
-147.39
-148.091
-148.776
-149.482
-150.258
-151.166
-152.278
-153.675
-155.425
-157.624
-159.993
-162.325
-164.719
-167.261
-169.949
-172.78
-175.73
-178.739
-181.725
-184.593
-187.184
-189.258
-190.663
-191.543
-192.27
-193.225
-194.584
-196.17
-197.725
-199.204
-200.78
-202.586
-204.673
-206.836
-209.562
-212.655
-216.129
-220.819
-68.9351
-0.0104293
-0.0291216
-0.0208437
-0.0257539
-0.0220288
-0.0219029
-0.0200478
-0.018759
-0.0174006
-0.0163213
-0.0154642
2.55614
2.52579
2.46441
2.37113
2.24501
2.08405
1.88667
1.64973
1.36932
1.04533
0.677911
0.264419
-0.199183
-0.717574
-1.29616
-1.94121
-2.65997
-3.46101
-4.35477
-5.35433
-6.47652
-7.74307
-9.18164
-10.8267
-12.7207
-14.918
-17.4913
-20.5403
-24.1944
-28.6039
-33.9277
-40.3277
-47.9022
-56.6613
-65.9271
-74.6223
-82.3268
-89.0604
-94.9651
-100.192
-104.868
-109.097
-112.952
-116.49
-119.752
-122.775
-125.597
-128.232
-130.677
-132.936
-135.022
-136.947
-138.719
-140.346
-141.836
-143.196
-144.435
-145.564
-146.594
-147.543
-148.428
-149.273
-150.106
-150.963
-151.883
-152.917
-154.119
-155.56
-157.282
-159.245
-161.365
-163.546
-165.802
-168.158
-170.618
-173.172
-175.793
-178.437
-181.041
-183.524
-185.778
-187.688
-189.206
-190.411
-191.488
-192.629
-193.944
-195.398
-196.895
-198.414
-200.022
-201.776
-203.731
-205.713
-207.921
-210.169
-212.557
-215.567
-77.4948
-0.0150639
-0.0185906
-0.017847
-0.0189491
-0.0180503
-0.0178653
-0.016928
-0.0161805
-0.0153502
-0.0145946
-0.0139539
3.18875
3.15217
3.07818
2.96574
2.81362
2.61942
2.38127
2.09537
1.75708
1.36667
0.924491
0.427121
-0.130274
-0.753177
-1.44785
-2.22143
-3.08213
-4.03948
-5.10486
-6.29239
-7.61994
-9.11031
-10.7918
-12.6984
-14.8697
-17.3533
-20.2106
-23.5224
-27.3866
-31.9021
-37.1537
-43.2164
-50.0877
-57.6341
-65.4815
-73.1343
-80.2647
-86.7631
-92.6457
-97.9751
-102.823
-107.257
-111.332
-115.092
-118.575
-121.813
-124.835
-127.652
-130.267
-132.686
-134.923
-136.987
-138.891
-140.643
-142.252
-143.728
-145.081
-146.324
-147.471
-148.538
-149.546
-150.515
-151.475
-152.455
-153.492
-154.626
-155.893
-157.319
-158.938
-160.735
-162.667
-164.688
-166.787
-168.965
-171.221
-173.539
-175.897
-178.256
-180.568
-182.773
-184.804
-186.602
-188.15
-189.492
-190.731
-191.976
-193.292
-194.682
-196.121
-197.599
-199.137
-200.754
-202.481
-204.176
-206.097
-207.874
-209.651
-211.701
-82.284
-0.0172739
-0.0132765
-0.0152523
-0.0147498
-0.014731
-0.014661
-0.0141659
-0.0137443
-0.0132214
-0.0127403
-0.0123224
3.85975
3.81717
3.73105
3.60021
3.42319
3.19722
2.92019
2.58747
2.1942
1.74087
1.2278
0.650859
0.00462604
-0.717031
-1.52106
-2.41533
-3.4087
-4.51131
-5.73503
-7.09426
-8.60705
-10.2961
-12.1893
-14.3185
-16.7189
-19.4301
-22.5007
-25.9925
-29.9761
-34.5136
-39.6462
-45.3964
-51.7256
-58.5062
-65.5059
-72.4399
-79.0866
-85.3226
-91.1071
-96.4492
-101.381
-105.943
-110.169
-114.095
-117.747
-121.154
-124.337
-127.307
-130.071
-132.636
-135.011
-137.207
-139.234
-141.103
-142.824
-144.407
-145.865
-147.21
-148.459
-149.627
-150.735
-151.803
-152.857
-153.923
-155.034
-156.219
-157.494
-158.893
-160.434
-162.108
-163.893
-165.762
-167.703
-169.709
-171.772
-173.876
-176.001
-178.116
-180.183
-182.16
-184.007
-185.696
-187.22
-188.608
-189.917
-191.208
-192.523
-193.874
-195.259
-196.675
-198.128
-199.619
-201.168
-202.712
-204.292
-205.782
-207.075
-208.572
-85.9069
-0.0160767
-0.00900926
-0.0127247
-0.0115187
-0.0119401
-0.0120304
-0.0118287
-0.0116502
-0.0113788
-0.0111087
-0.0108549
4.57545
4.52714
4.42947
4.28112
4.08044
3.8244
3.51061
3.13349
2.68839
2.17611
1.59654
0.944946
0.215471
-0.598516
-1.5045
-2.51088
-3.62699
-4.86327
-6.23164
-7.74623
-9.42451
-11.2883
-13.3639
-15.6808
-18.2697
-21.1623
-24.3949
-28.0121
-32.0623
-36.5821
-41.5878
-47.0743
-52.9932
-59.2417
-65.6644
-72.0808
-78.3341
-84.318
-89.9769
-95.2922
-100.269
-104.922
-109.273
-113.341
-117.146
-120.708
-124.042
-127.158
-130.064
-132.766
-135.273
-137.594
-139.738
-141.718
-143.542
-145.224
-146.775
-148.21
-149.545
-150.796
-151.984
-153.127
-154.248
-155.372
-156.524
-157.723
-159
-160.366
-161.833
-163.4
-165.055
-166.782
-168.571
-170.412
-172.295
-174.206
-176.129
-178.038
-179.906
-181.704
-183.407
-185
-186.481
-187.867
-189.19
-190.487
-191.785
-193.097
-194.43
-195.781
-197.153
-198.548
-199.983
-201.398
-202.796
-204.138
-205.106
-206.439
-88.2676
-0.0129499
-0.00588963
-0.0100682
-0.00903055
-0.00951648
-0.00977405
-0.00980762
-0.00979325
-0.00971793
-0.00962202
-0.00951942
5.3418
5.28808
5.1795
5.01462
4.79172
4.50751
4.15917
3.74051
3.24713
2.68016
2.03884
1.31797
0.511352
-0.388028
-1.38806
-2.49754
-3.72609
-5.08428
-6.58378
-8.23801
-10.0632
-12.0796
-14.3114
-16.7852
-19.5277
-22.5642
-25.9208
-29.6274
-33.7152
-38.2039
-43.0955
-48.3726
-53.9884
-59.8623
-65.8847
-71.9319
-77.8899
-83.6707
-89.2172
-94.4979
-99.5007
-104.225
-108.678
-112.868
-116.808
-120.51
-123.983
-127.235
-130.274
-133.104
-135.733
-138.17
-140.423
-142.504
-144.423
-146.193
-147.826
-149.337
-150.743
-152.061
-153.309
-154.506
-155.673
-156.831
-158
-159.198
-160.449
-161.765
-163.156
-164.622
-166.157
-167.751
-169.394
-171.079
-172.795
-174.532
-176.275
-178.005
-179.702
-181.346
-182.92
-184.416
-185.835
-187.185
-188.488
-189.764
-191.032
-192.304
-193.586
-194.878
-196.182
-197.505
-198.85
-200.166
-201.435
-202.69
-203.484
-204.905
-90.01
-0.0096003
-0.00353333
-0.00715436
-0.00691947
-0.00742823
-0.00778852
-0.00804233
-0.00816519
-0.00824867
-0.00829812
-0.00832798
6.16436
6.10556
5.98678
5.80647
5.56287
5.25252
4.87207
4.41506
3.87735
3.2602
2.56221
1.77782
0.900538
-0.0769509
-1.16283
-2.36616
-3.69678
-5.16524
-6.78284
-8.56208
-10.5176
-12.6675
-15.0331
-17.6381
-20.5057
-23.6564
-27.1086
-30.8816
-34.9933
-39.4525
-44.2534
-49.3744
-54.7733
-60.3867
-66.1332
-71.9226
-77.6686
-83.2984
-88.7581
-94.011
-99.0356
-103.821
-108.363
-112.663
-116.726
-120.556
-124.159
-127.54
-130.703
-133.653
-136.397
-138.941
-141.295
-143.468
-145.471
-147.318
-149.021
-150.595
-152.056
-153.423
-154.712
-155.942
-157.133
-158.301
-159.465
-160.643
-161.855
-163.112
-164.423
-165.789
-167.209
-168.676
-170.182
-171.72
-173.282
-174.859
-176.439
-178.01
-179.556
-181.063
-182.52
-183.921
-185.267
-186.565
-187.827
-189.066
-190.295
-191.524
-192.758
-193.997
-195.248
-196.52
-197.809
-199.076
-200.304
-201.574
-202.332
-203.937
-90.9614
-0.006103
-0.00156411
-0.00437246
-0.0049367
-0.00560006
-0.0060253
-0.00649739
-0.00672939
-0.0069497
-0.00712361
-0.00727238
7.04825
6.98473
6.85651
6.66194
6.39931
6.06497
5.65509
5.16309
4.58532
3.92283
3.1736
2.33174
1.3905
0.342349
-0.821065
-2.10897
-3.53132
-5.09865
-6.8219
-8.71268
-10.784
-13.0515
-15.5335
-18.2504
-21.2221
-24.4656
-27.9943
-31.82
-35.9519
-40.3913
-45.1287
-50.1414
-55.3926
-60.8308
-66.3928
-72.0093
-77.6121
-83.1402
-88.544
-93.7855
-98.8381
-103.684
-108.312
-112.716
-116.895
-120.847
-124.574
-128.078
-131.36
-134.424
-137.275
-139.919
-142.364
-144.62
-146.698
-148.61
-150.369
-151.992
-153.494
-154.892
-156.205
-157.45
-158.644
-159.803
-160.944
-162.088
-163.248
-164.436
-165.661
-166.927
-168.233
-169.576
-170.95
-172.35
-173.768
-175.198
-176.63
-178.056
-179.465
-180.846
-182.192
-183.499
-184.768
-186.002
-187.21
-188.402
-189.585
-190.768
-191.957
-193.149
-194.359
-195.596
-196.856
-198.112
-199.355
-200.703
-201.541
-203.426
-91.1766
-0.00280318
0.000492466
-0.00216037
-0.00299987
-0.00399912
-0.00447541
-0.00515942
-0.00546982
-0.0058085
-0.00608626
-0.00633812
7.99811
7.93024
7.79343
7.58584
7.30594
6.94995
6.51351
5.99013
5.37686
4.67422
3.87944
2.9863
1.98787
0.876547
-0.3561
-1.71936
-3.22325
-4.8783
-6.69525
-8.68503
-10.8593
-13.2313
-15.8164
-18.6317
-21.6938
-25.0169
-28.6114
-32.4841
-36.6386
-41.0721
-45.7727
-50.7186
-55.8772
-61.2057
-66.6529
-72.1632
-77.6802
-83.1519
-88.5327
-93.7849
-98.8791
-103.793
-108.511
-113.02
-117.314
-121.387
-125.235
-128.858
-132.255
-135.428
-138.38
-141.116
-143.644
-145.973
-148.114
-150.079
-151.883
-153.539
-155.066
-156.48
-157.799
-159.041
-160.219
-161.35
-162.455
-163.55
-164.647
-165.759
-166.893
-168.055
-169.248
-170.469
-171.715
-172.983
-174.265
-175.557
-176.852
-178.144
-179.425
-180.687
-181.926
-183.139
-184.327
-185.491
-186.638
-187.774
-188.906
-190.041
-191.185
-192.335
-193.512
-194.725
-195.975
-197.247
-198.541
-200.011
-201.019
-203.267
-90.8185
-0.000838748
0.00267592
-0.000706397
-0.00134155
-0.00265427
-0.00315429
-0.00401848
-0.00437517
-0.00481374
-0.00517252
-0.00550872
9.01809
8.9462
8.80174
8.58247
8.28718
7.91199
7.45204
6.90121
6.25745
5.52011
4.68555
3.74734
2.69851
1.53148
0.237826
-1.19174
-2.76726
-4.49925
-6.39839
-8.47523
-10.7405
-13.2056
-15.8832
-18.7873
-21.9315
-25.3276
-28.9836
-32.9035
-37.0877
-41.5307
-46.2198
-51.1344
-56.2457
-61.517
-66.9052
-72.3637
-77.8444
-83.3015
-88.6928
-93.9815
-99.1366
-104.132
-108.949
-113.57
-117.983
-122.178
-126.149
-129.891
-133.4
-136.678
-139.725
-142.546
-145.149
-147.541
-149.734
-151.739
-153.573
-155.249
-156.784
-158.197
-159.506
-160.723
-161.867
-162.958
-164.012
-165.044
-166.068
-167.095
-168.133
-169.189
-170.267
-171.367
-172.487
-173.626
-174.778
-175.939
-177.105
-178.27
-179.429
-180.579
-181.714
-182.833
-183.936
-185.026
-186.106
-187.182
-188.259
-189.343
-190.441
-191.551
-192.698
-193.894
-195.142
-196.443
-197.803
-199.407
-200.627
-203.241
-90.226
0.000411344
0.00462792
0.000412812
5.80099e-06
-0.0015727
-0.00204859
-0.00306127
-0.00343572
-0.00395626
-0.00436981
-0.0047696
10.1118
10.0361
9.88519
9.65563
9.34687
8.95506
8.47474
7.90098
7.23215
6.46558
5.59697
4.61995
3.52759
2.31231
0.965728
-0.521395
-2.15904
-3.95774
-5.92813
-8.08065
-10.4255
-12.973
-15.7338
-18.7193
-21.9404
-25.4066
-29.1241
-33.0955
-37.3189
-41.7878
-46.4895
-51.4047
-56.5074
-61.7656
-67.1419
-72.5955
-78.0842
-83.5663
-89.0023
-94.3559
-99.5949
-104.691
-109.621
-114.364
-118.905
-123.228
-127.325
-131.186
-134.808
-138.187
-141.325
-144.226
-146.894
-149.339
-151.572
-153.605
-155.454
-157.133
-158.662
-160.056
-161.333
-162.509
-163.604
-164.638
-165.625
-166.582
-167.521
-168.454
-169.39
-170.336
-171.297
-172.275
-173.27
-174.281
-175.306
-176.341
-177.382
-178.426
-179.47
-180.51
-181.543
-182.569
-183.587
-184.599
-185.609
-186.621
-187.64
-188.671
-189.721
-190.79
-191.905
-193.083
-194.331
-195.657
-197.079
-198.797
-200.225
-203.125
-89.7348
0.0019773
0.00602279
0.00141866
0.00101283
-0.000705235
-0.00116753
-0.00227583
-0.00264811
-0.00323001
-0.00366795
-0.00410936
11.2827
11.2021
11.0473
10.8085
10.4882
10.0823
9.58525
8.99395
8.30535
7.51489
6.61805
5.60862
4.47966
3.22357
1.83201
0.29581
-1.39492
-3.25068
-5.28214
-7.49976
-9.91364
-12.5334
-15.3687
-18.4288
-21.7227
-25.2579
-29.0394
-33.0685
-37.3425
-41.8544
-46.5918
-51.5367
-56.6657
-61.9498
-67.3558
-72.8469
-78.3848
-83.9304
-89.4458
-94.895
-100.244
-105.463
-110.525
-115.406
-120.085
-124.546
-128.774
-132.76
-136.494
-139.974
-143.2
-146.172
-148.899
-151.386
-153.647
-155.694
-157.543
-159.21
-160.713
-162.07
-163.297
-164.414
-165.442
-166.401
-167.306
-168.173
-169.016
-169.845
-170.671
-171.501
-172.341
-173.195
-174.065
-174.95
-175.849
-176.759
-177.68
-178.607
-179.538
-180.471
-181.405
-182.337
-183.27
-184.204
-185.141
-186.086
-187.044
-188.018
-189.018
-190.043
-191.122
-192.275
-193.514
-194.852
-196.31
-198.096
-199.68
-202.72
-89.6644
0.00384085
0.006525
0.00223038
0.00159876
-7.3041e-05
-0.000546148
-0.00166173
-0.00202036
-0.00263056
-0.00305967
-0.00352027
12.5348
12.4432
12.2925
12.0438
11.7137
11.2958
10.7873
10.1846
9.4806
8.67156
7.75246
6.71717
5.55862
4.2692
2.84058
1.26361
-0.471542
-2.37533
-4.45845
-6.73152
-9.20471
-11.8876
-14.7891
-17.9176
-21.2808
-24.8848
-28.7335
-32.8277
-37.1643
-41.7361
-46.5314
-51.5336
-56.7209
-62.067
-67.5411
-73.1095
-78.736
-84.3833
-90.0139
-95.5912
-101.08
-106.448
-111.664
-116.701
-121.535
-126.145
-130.514
-134.629
-138.479
-142.06
-145.37
-148.409
-151.185
-153.705
-155.98
-158.026
-159.859
-161.495
-162.955
-164.254
-165.411
-166.45
-167.393
-168.259
-169.065
-169.827
-170.559
-171.273
-171.98
-172.688
-173.403
-174.13
-174.872
-175.63
-176.404
-177.193
-177.994
-178.806
-179.628
-180.457
-181.292
-182.132
-182.979
-183.833
-184.696
-185.572
-186.466
-187.381
-188.326
-189.302
-190.338
-191.456
-192.671
-193.997
-195.454
-197.244
-198.896
-201.887
-90.2569
0.00505144
0.0059349
0.00267445
0.00170013
0.000273621
-0.000217
-0.00122335
-0.00156376
-0.0021521
-0.00254124
-0.0029967
13.8641
13.7776
13.6145
13.3619
13.0249
12.5984
12.0844
11.4751
10.7605
9.9383
9.00306
7.94858
6.76766
5.45259
3.99491
2.38547
0.61441
-1.32874
-3.45479
-5.77452
-8.29835
-11.0361
-13.9966
-17.1881
-20.6175
-24.2903
-28.2098
-32.3766
-36.7876
-41.436
-46.3107
-51.3961
-56.6721
-62.1141
-67.6932
-73.3772
-79.1312
-84.9185
-90.7012
-96.4416
-102.102
-107.648
-113.044
-118.26
-123.268
-128.043
-132.564
-136.817
-140.788
-144.47
-147.861
-150.962
-153.778
-156.319
-158.596
-160.625
-162.423
-164.011
-165.404
-166.623
-167.691
-168.633
-169.471
-170.224
-170.913
-171.554
-172.161
-172.748
-173.326
-173.903
-174.487
-175.083
-175.696
-176.325
-176.974
-177.64
-178.324
-179.023
-179.736
-180.462
-181.2
-181.95
-182.711
-183.484
-184.272
-185.077
-185.903
-186.755
-187.641
-188.564
-189.547
-190.615
-191.789
-193.077
-194.491
-196.221
-197.84
-200.576
-91.6202
0.00439678
0.0046484
0.00219016
0.00131823
0.000294565
-0.000189448
-0.000958426
-0.00128213
-0.0017864
-0.00211178
-0.00253354
15.2772
15.1909
15.0222
14.7655
14.4232
13.9938
13.4787
12.8666
12.1465
11.3169
10.3718
9.30512
8.10934
6.77657
5.29811
3.66469
1.86631
-0.107656
-2.26822
-4.62643
-7.19304
-9.9783
-12.9916
-16.2413
-19.7343
-23.4761
-27.47
-31.7168
-36.2138
-40.9548
-45.9294
-51.1232
-56.5172
-62.0879
-67.8077
-73.6453
-79.5659
-85.5326
-91.5063
-97.4472
-103.315
-109.071
-114.678
-120.099
-125.303
-130.262
-134.951
-139.351
-143.449
-147.235
-150.705
-153.862
-156.709
-159.258
-161.522
-163.516
-165.261
-166.778
-168.082
-169.198
-170.154
-170.976
-171.687
-172.308
-172.861
-173.362
-173.829
-174.276
-174.713
-175.151
-175.597
-176.058
-176.536
-177.036
-177.558
-178.102
-178.669
-179.256
-179.862
-180.487
-181.129
-181.788
-182.463
-183.155
-183.866
-184.597
-185.353
-186.138
-186.96
-187.823
-188.745
-189.747
-190.863
-192.091
-193.428
-195.055
-196.566
-198.945
-93.5947
0.00123434
0.00332319
0.000544339
0.000670345
-1.71094e-05
-0.00041714
-0.000852673
-0.0011586
-0.00152121
-0.00176957
-0.00212559
16.7733
16.6865
16.5147
16.2549
15.91
15.4836
14.9721
14.3595
13.6393
12.8079
11.8598
10.7885
9.58558
8.24339
6.75282
5.10429
3.28751
1.29148
-0.89515
-3.28376
-5.88562
-8.71164
-11.7719
-15.0755
-18.6299
-22.4411
-26.5131
-30.8472
-35.4414
-40.2905
-45.3851
-50.7116
-56.252
-61.9838
-67.8801
-73.9094
-80.0369
-86.224
-92.4299
-98.612
-104.727
-110.73
-116.581
-122.239
-127.666
-132.831
-137.705
-142.267
-146.499
-150.391
-153.939
-157.144
-160.013
-162.556
-164.789
-166.73
-168.399
-169.816
-171.006
-171.996
-172.816
-173.493
-174.053
-174.52
-174.916
-175.26
-175.571
-175.862
-176.147
-176.435
-176.736
-177.054
-177.396
-177.763
-178.157
-178.579
-179.028
-179.504
-180.004
-180.528
-181.075
-181.643
-182.233
-182.843
-183.476
-184.132
-184.816
-185.53
-186.282
-187.076
-187.929
-188.855
-189.895
-191.046
-192.289
-193.802
-195.19
-197.26
-95.6552
-0.003862
0.00278729
-0.00204493
0.000313119
-0.000682766
-0.000766925
-0.000895675
-0.00115564
-0.00134073
-0.00150883
-0.00176816
18.3519
18.2648
18.0913
17.8297
17.4876
17.0685
16.5626
15.9542
15.239
14.4123
13.4679
12.399
11.1977
9.85468
8.36118
6.70682
4.88124
2.87236
0.668561
-1.74204
-4.37142
-7.23139
-10.333
-13.6863
-17.3
-21.1811
-25.3346
-29.7628
-34.4651
-39.4374
-44.6713
-50.1545
-55.8698
-61.7953
-67.9042
-74.1648
-80.5409
-86.9924
-93.4754
-99.9436
-106.349
-112.643
-118.777
-124.707
-130.39
-135.787
-140.868
-145.605
-149.981
-153.983
-157.606
-160.852
-163.73
-166.252
-168.435
-170.298
-171.865
-173.157
-174.202
-175.037
-175.692
-176.197
-176.581
-176.869
-177.085
-177.252
-177.388
-177.509
-177.628
-177.756
-177.902
-178.073
-178.272
-178.503
-178.768
-179.067
-179.399
-179.763
-180.159
-180.583
-181.036
-181.515
-182.018
-182.547
-183.101
-183.68
-184.288
-184.928
-185.605
-186.324
-187.101
-187.941
-188.889
-189.957
-191.099
-192.512
-193.826
-195.763
-97.1628
-0.00812327
0.00267025
-0.00432132
0.000180537
-0.00159027
-0.00108095
-0.00103809
-0.00123988
-0.00122337
-0.00131988
-0.0014571
20.0122
19.925
19.7507
19.4897
19.1559
18.7475
18.2491
17.65
16.9453
16.1296
15.1963
14.138
12.9461
11.6115
10.1251
8.47411
6.6506
4.63858
2.42713
0.00366365
-2.64486
-5.53137
-8.66815
-12.0667
-15.7372
-19.6881
-23.926
-28.4549
-33.2757
-38.3857
-43.7782
-49.4419
-55.3606
-61.5129
-67.8719
-74.4053
-81.0751
-87.8384
-94.648
-101.453
-108.199
-114.831
-121.295
-127.539
-133.514
-139.176
-144.487
-149.418
-153.948
-158.062
-161.758
-165.036
-167.908
-170.39
-172.5
-174.263
-175.692
-176.824
-177.694
-178.341
-178.798
-179.1
-179.278
-179.36
-179.373
-179.341
-179.283
-179.216
-179.156
-179.112
-179.095
-179.11
-179.162
-179.254
-179.387
-179.561
-179.776
-180.03
-180.321
-180.648
-181.007
-181.397
-181.816
-182.263
-182.737
-183.239
-183.77
-184.332
-184.93
-185.567
-186.26
-187.007
-187.848
-188.824
-189.864
-191.188
-192.5
-194.413
-97.8581
-0.00747679
0.00182868
-0.00525337
-7.54272e-05
-0.00243986
-0.00120836
-0.00125651
-0.00133887
-0.00116161
-0.00119695
-0.00119214
21.7522
21.6655
21.491
21.2355
20.9131
20.5175
20.0304
19.4456
18.7573
17.9592
17.0444
16.0049
14.8318
13.5153
12.0444
10.4069
8.59921
6.59324
4.38456
1.95844
-0.699841
-3.60447
-6.76928
-10.2076
-13.9314
-17.9513
-22.2758
-26.911
-31.8598
-37.1217
-42.6916
-48.5597
-54.7109
-61.1245
-67.7732
-74.6237
-81.6359
-88.7638
-95.9552
-103.153
-110.297
-117.325
-124.172
-130.78
-137.09
-143.052
-148.623
-153.768
-158.464
-162.695
-166.457
-169.756
-172.604
-175.021
-177.035
-178.673
-179.921
-180.851
-181.506
-181.927
-182.151
-182.215
-182.154
-182
-181.782
-181.526
-181.253
-180.981
-180.726
-180.498
-180.307
-180.159
-180.058
-180.007
-180.006
-180.056
-180.153
-180.298
-180.486
-180.715
-180.982
-181.285
-181.621
-181.987
-182.383
-182.807
-183.259
-183.741
-184.256
-184.805
-185.406
-186.054
-186.778
-187.637
-188.569
-189.781
-191.116
-192.892
-98.3385
-0.00269674
-0.000736437
-0.00529745
-0.000850531
-0.00301297
-0.00131817
-0.00163193
-0.00146253
-0.00117374
-0.00112527
-0.00097501
23.5697
23.4838
23.31
23.065
22.7573
22.3754
21.9046
21.3393
20.6732
19.8996
19.011
17.9989
16.8539
15.5655
14.1223
12.5122
10.723
8.73854
6.54416
4.12755
1.47009
-1.44291
-4.6271
-8.0982
-11.8706
-15.9571
-20.369
-25.1149
-30.2005
-35.6275
-41.3933
-47.49
-53.9038
-60.6147
-67.5954
-74.8112
-82.2198
-89.771
-97.4072
-105.064
-112.673
-120.161
-127.454
-134.483
-141.179
-147.485
-153.349
-158.732
-163.606
-167.956
-171.779
-175.082
-177.882
-180.204
-182.086
-183.598
-184.583
-185.268
-185.667
-185.819
-185.766
-185.552
-185.215
-184.791
-184.313
-183.806
-183.295
-182.798
-182.332
-181.907
-181.532
-181.213
-180.954
-180.756
-180.62
-180.543
-180.523
-180.559
-180.645
-180.779
-180.957
-181.175
-181.429
-181.716
-182.034
-182.381
-182.754
-183.154
-183.583
-184.04
-184.541
-185.08
-185.679
-186.389
-187.189
-188.226
-189.575
-190.991
-99.4665
-0.00101218
-0.0027573
-0.00557233
-0.00196609
-0.00349927
-0.00160329
-0.00203889
-0.00161409
-0.00125785
-0.00109485
-0.000804057
25.4613
25.376
25.2055
24.9741
24.684
24.3187
23.8689
23.3286
22.6909
21.9488
21.0942
20.1183
19.011
17.7612
16.3568
14.7846
13.0303
11.0776
8.91019
6.51725
3.87145
0.96144
-2.23128
-5.72643
-9.54072
-13.6898
-18.1881
-23.0475
-28.2772
-33.8818
-39.8618
-46.2114
-52.9189
-59.9653
-67.3234
-74.9575
-82.8223
-90.8633
-99.0164
-107.209
-115.36
-123.386
-131.199
-138.717
-145.86
-152.56
-158.757
-164.404
-169.47
-173.939
-177.812
-181.098
-183.82
-186.004
-187.676
-188.824
-189.677
-190.106
-190.205
-190.039
-189.662
-189.124
-188.468
-187.737
-186.963
-186.177
-185.403
-184.661
-183.966
-183.33
-182.761
-182.263
-181.84
-181.492
-181.217
-181.014
-180.878
-180.806
-180.793
-180.834
-180.925
-181.061
-181.236
-181.447
-181.689
-181.959
-182.255
-182.573
-182.915
-183.277
-183.669
-184.087
-184.548
-185.079
-185.711
-186.429
-187.676
-188.563
-102.062
-0.00353613
-0.0040873
-0.00606541
-0.00312178
-0.00402089
-0.00216108
-0.00250091
-0.00179769
-0.00139502
-0.00110143
-0.000681851
27.4229
27.3385
27.1745
26.9583
26.688
26.3436
25.9197
25.4098
24.8068
24.1034
23.2911
22.3605
21.3009
20.1007
18.7468
17.225
15.5198
13.614
11.49
9.12916
6.51154
3.61646
0.429694
-3.079
-6.92658
-11.1319
-15.7132
-20.6869
-26.0662
-31.8597
-38.0713
-44.6984
-51.7319
-59.1544
-66.9392
-75.0497
-83.438
-92.0445
-100.798
-109.614
-118.401
-127.057
-135.478
-143.566
-151.228
-158.383
-164.958
-170.899
-176.17
-180.757
-184.663
-187.907
-190.517
-192.526
-193.973
-194.888
-195.364
-195.433
-195.161
-194.614
-193.855
-192.939
-191.918
-190.835
-189.729
-188.631
-187.567
-186.557
-185.617
-184.756
-183.982
-183.298
-182.706
-182.204
-181.79
-181.46
-181.209
-181.032
-180.923
-180.875
-180.882
-180.939
-181.039
-181.177
-181.346
-181.543
-181.763
-182.001
-182.256
-182.521
-182.802
-183.089
-183.396
-183.725
-184.13
-184.479
-185.312
-185.669
-106.096
-0.00453196
-0.00656343
-0.0067158
-0.00456658
-0.00448346
-0.0029216
-0.0029187
-0.00208987
-0.00157387
-0.00114412
-0.000610222
29.4495
29.3663
29.2122
29.0136
28.7649
28.4455
28.0524
27.5784
27.0167
26.3594
25.5977
24.7218
23.7205
22.5812
21.2903
19.8324
18.1908
16.3471
14.2815
11.9728
9.39766
6.5309
3.37019
-0.141876
-4.01178
-8.26412
-12.922
-18.0083
-23.5407
-29.5326
-35.9923
-42.9216
-50.3145
-58.1561
-66.4211
-75.0723
-84.0596
-93.3182
-102.768
-112.315
-121.847
-131.245
-140.381
-149.135
-157.401
-165.081
-172.09
-178.36
-183.849
-188.547
-192.463
-195.628
-198.081
-199.865
-201.014
-201.588
-201.655
-201.29
-200.569
-199.569
-198.36
-197.007
-195.564
-194.083
-192.603
-191.159
-189.777
-188.476
-187.27
-186.17
-185.18
-184.303
-183.537
-182.88
-182.327
-181.872
-181.509
-181.23
-181.028
-180.895
-180.823
-180.806
-180.835
-180.904
-181.006
-181.134
-181.282
-181.443
-181.613
-181.783
-181.953
-182.107
-182.249
-182.361
-182.498
-182.476
-182.674
-182.473
-111.117
-0.0101531
-0.0091614
-0.00797582
-0.00599852
-0.00533068
-0.00374509
-0.00335569
-0.00243075
-0.00176939
-0.00121026
-0.000576606
31.5348
31.4532
31.3118
31.1335
30.9088
30.6185
30.2609
29.8287
29.3149
28.7113
28.009
27.1975
26.2652
25.1989
23.9841
22.6045
21.042
19.2767
17.287
15.0494
12.5384
9.72744
6.59121
3.099
-0.779512
-5.06608
-9.78977
-14.9836
-20.6701
-26.868
-33.591
-40.8465
-48.6332
-56.9396
-65.7427
-75.006
-84.6774
-94.6875
-104.948
-115.35
-125.763
-136.038
-146.018
-155.555
-164.525
-172.818
-180.326
-186.966
-192.686
-197.478
-201.369
-204.406
-206.642
-208.135
-208.91
-209.035
-208.61
-207.723
-206.465
-204.928
-203.193
-201.332
-199.407
-197.473
-195.575
-193.747
-192.014
-190.398
-188.909
-187.555
-186.34
-185.263
-184.321
-183.507
-182.815
-182.238
-181.766
-181.39
-181.101
-180.888
-180.744
-180.659
-180.623
-180.629
-180.668
-180.733
-180.814
-180.905
-180.996
-181.077
-181.141
-181.167
-181.149
-181.049
-180.909
-180.517
-180.115
-179.273
-116.148
-0.0166027
-0.0115245
-0.00983869
-0.00735684
-0.00623117
-0.00452196
-0.00374778
-0.0027539
-0.00194968
-0.00128499
-0.000566599
33.6711
33.5922
33.4657
33.3101
33.112
32.8553
32.5383
32.1538
31.6946
31.1526
30.5184
29.7813
28.9293
27.9485
26.8237
25.5375
24.0705
22.4015
20.5067
18.3604
15.9342
13.1979
10.1193
6.66277
2.79432
-1.51711
-6.28692
-11.5816
-17.4203
-23.8289
-30.8286
-38.4337
-46.6492
-55.4687
-64.8727
-74.8268
-85.2782
-96.1541
-107.358
-118.767
-130.226
-141.55
-152.536
-162.995
-172.798
-181.82
-189.917
-196.978
-202.935
-207.786
-211.587
-214.418
-216.354
-217.479
-217.758
-217.33
-216.307
-214.794
-212.894
-210.719
-208.368
-205.918
-203.44
-200.993
-198.626
-196.373
-194.259
-192.301
-190.51
-188.89
-187.441
-186.159
-185.037
-184.068
-183.241
-182.545
-181.97
-181.503
-181.133
-180.849
-180.639
-180.492
-180.399
-180.349
-180.333
-180.341
-180.365
-180.392
-180.414
-180.417
-180.387
-180.301
-180.141
-179.855
-179.47
-178.75
-177.878
-176.571
-120.513
-0.0215463
-0.0124167
-0.0120073
-0.0081305
-0.00703586
-0.00508616
-0.00402251
-0.00299501
-0.00207175
-0.00133852
-0.000563092
35.8508
35.7759
35.6659
35.5347
35.3665
35.1477
34.8764
34.5454
34.1477
33.6751
33.1181
32.4657
31.7054
30.8232
29.8027
28.6259
27.2721
25.7185
23.9394
21.9065
19.5884
16.9509
13.9567
10.5649
6.73158
2.40695
-2.3738
-7.76733
-13.7537
-20.3741
-27.6608
-35.6375
-44.3174
-53.7009
-63.7736
-74.5056
-85.8446
-97.7173
-110.021
-122.619
-135.334
-147.939
-160.162
-171.731
-182.53
-192.447
-201.253
-208.795
-214.999
-219.855
-223.473
-225.974
-227.459
-227.968
-227.646
-226.526
-224.76
-222.471
-219.805
-216.905
-213.863
-210.757
-207.655
-204.627
-201.735
-199.012
-196.481
-194.156
-192.045
-190.146
-188.456
-186.966
-185.666
-184.543
-183.585
-182.778
-182.106
-181.556
-181.115
-180.767
-180.5
-180.302
-180.16
-180.063
-180
-179.961
-179.935
-179.91
-179.875
-179.813
-179.709
-179.534
-179.267
-178.842
-178.273
-177.324
-176.074
-174.602
-123.713
-0.0245968
-0.012523
-0.0135321
-0.00845388
-0.00749738
-0.00533138
-0.00413944
-0.00310075
-0.00211224
-0.00135099
-0.000557837
38.0651
37.9954
37.9035
37.7983
37.6632
37.4864
37.2657
36.9941
36.6648
36.2695
35.7987
35.2413
34.5847
33.8142
32.913
31.8623
30.6404
29.2227
27.5818
25.6867
23.5029
20.9921
18.1121
14.8167
11.0565
6.78051
1.94464
-3.50879
-9.6292
-16.4572
-24.0379
-32.4062