/*--------------------------------*- C++ -*----------------------------------*\
| =========                 |                                                 |
| \\      /  F ield         | OpenFOAM: The Open Source CFD Toolbox           |
|  \\    /   O peration     | Version:  v2106                                 |
|   \\  /    A nd           | Website:  www.openfoam.com                      |
|    \\/     M anipulation  |                                                 |
\*---------------------------------------------------------------------------*/
FoamFile
{
    version     2.0;
    format      ascii;
    arch        "LSB;label=32;scalar=64";
    class       surfaceScalarField;
    location    "1.6";
    object      phi;
}
// * * * * * * * * * * * * * * * * * * * * * * * * * * * * * * * * * * * * * //

dimensions      [0 3 -1 0 0 0 0];

oriented        oriented;

internalField   nonuniform List<scalar> 
59425
(
-1.10239e-08
-1.07801e-05
-2.00111e-08
-1.0909e-05
-2.62954e-08
-1.09061e-05
-3.02486e-08
-1.0888e-05
-3.24704e-08
-1.08635e-05
-3.33557e-08
-1.08341e-05
-3.31094e-08
-1.07999e-05
-3.17924e-08
-1.07608e-05
-2.93156e-08
-1.07161e-05
-2.56633e-08
-1.06648e-05
-2.08688e-08
-1.06058e-05
-1.47466e-08
-1.05378e-05
-7.0163e-09
-1.04594e-05
2.54997e-09
-1.03694e-05
1.41418e-08
-1.02661e-05
2.79661e-08
-1.01479e-05
4.42509e-08
-1.00129e-05
6.32336e-08
-9.85898e-06
8.51879e-08
-9.68393e-06
1.10436e-07
-9.48509e-06
1.39374e-07
-9.25946e-06
1.72513e-07
-9.00346e-06
2.10571e-07
-8.71284e-06
2.54626e-07
-8.38235e-06
3.06447e-07
-8.00546e-06
3.69239e-07
-7.57384e-06
4.49467e-07
-7.07692e-06
5.61501e-07
-6.50185e-06
7.39037e-07
-5.83475e-06
1.05618e-06
-5.06017e-06
1.64369e-06
-4.13664e-06
2.70649e-06
-2.96026e-06
4.59705e-06
-1.33585e-06
7.19628e-06
2.55364e-07
8.80798e-06
-6.00507e-07
9.68982e-06
-1.85391e-06
1.02453e-05
-2.75984e-06
1.0624e-05
-3.43669e-06
1.08967e-05
-3.95743e-06
1.11022e-05
-4.36217e-06
1.12579e-05
-4.68287e-06
1.13701e-05
-4.94046e-06
1.14478e-05
-5.14062e-06
1.14933e-05
-5.2964e-06
1.15026e-05
-5.41502e-06
1.1487e-05
-5.4852e-06
1.14517e-05
-5.51912e-06
1.13916e-05
-5.5319e-06
1.13014e-05
-5.52423e-06
1.11826e-05
-5.49179e-06
1.10367e-05
-5.43687e-06
1.08607e-05
-5.36505e-06
1.06556e-05
-5.27396e-06
1.04237e-05
-5.16238e-06
1.01643e-05
-5.03309e-06
9.87677e-06
-4.8866e-06
9.55769e-06
-4.72488e-06
9.20892e-06
-4.54123e-06
8.83157e-06
-4.33337e-06
8.42896e-06
-4.09636e-06
8.01135e-06
-3.82054e-06
7.58369e-06
-3.50924e-06
7.15081e-06
-3.16189e-06
6.72175e-06
-2.77316e-06
6.3064e-06
-2.34215e-06
5.92605e-06
-1.85933e-06
5.63909e-06
-1.30141e-06
5.556e-06
-6.41662e-07
5.79639e-06
2.17719e-07
6.03004e-06
7.04038e-07
5.85554e-06
5.00449e-07
5.71312e-06
6.39518e-07
5.62543e-06
8.70562e-07
5.46184e-06
9.79928e-07
5.28162e-06
1.06429e-06
5.11149e-06
1.15131e-06
4.95903e-06
1.23286e-06
4.87587e-06
1.30169e-06
4.84488e-06
1.31844e-06
4.734e-06
1.18415e-06
4.39728e-06
9.80927e-07
3.89868e-06
7.52323e-07
3.34623e-06
6.38926e-07
2.88882e-06
7.14969e-07
2.67052e-06
8.97685e-07
2.66309e-06
1.13358e-06
2.79217e-06
1.28633e-06
2.7083e-06
1.12756e-06
2.39495e-06
7.17531e-07
2.22349e-06
5.18942e-07
2.37405e-06
6.5384e-07
2.5085e-06
4.71043e-07
2.65781e-06
4.67707e-08
3.153e-06
-4.97082e-08
4.17102e-06
-4.36914e-07
5.59272e-06
-1.29165e-06
8.40504e-06
-2.72435e-06
1.23904e-05
-5.40216e-06
-2.22713e-05
-4.28193e-05
-3.33676e-05
-2.23933e-05
-3.14569e-05
-2.75718e-05
-2.9362e-05
-1.56598e-05
-2.84322e-05
-1.66095e-05
-2.6815e-05
-1.02421e-05
-2.6315e-05
-9.13072e-06
-2.5037e-05
-5.55101e-06
-2.4083e-05
-3.8913e-06
-2.24921e-05
-1.49823e-06
-2.16572e-05
-9.91743e-07
-3.57533e-07
-3.99052e-09
-1.07761e-05
-7.3539e-09
-1.09056e-05
-9.2237e-09
-1.09043e-05
-9.42172e-09
-1.08878e-05
-7.92713e-09
-1.0865e-05
-4.78824e-09
-1.08372e-05
-2.0004e-11
-1.08047e-05
6.44083e-09
-1.07672e-05
1.47396e-08
-1.07244e-05
2.50889e-08
-1.06752e-05
3.7733e-08
-1.06184e-05
5.30047e-08
-1.0553e-05
7.12573e-08
-1.04777e-05
9.28133e-08
-1.0391e-05
1.18019e-07
-1.02913e-05
1.47251e-07
-1.01771e-05
1.80939e-07
-1.00465e-05
2.19592e-07
-9.89763e-06
2.63817e-07
-9.72816e-06
3.14357e-07
-9.53563e-06
3.72152e-07
-9.31725e-06
4.38435e-07
-9.06974e-06
5.14883e-07
-8.78929e-06
6.03888e-07
-8.47136e-06
7.08976e-07
-8.11055e-06
8.35504e-07
-7.70037e-06
9.91659e-07
-7.23308e-06
1.18933e-06
-6.69952e-06
1.44303e-06
-6.08845e-06
1.76653e-06
-5.38367e-06
2.19288e-06
-4.56302e-06
2.87633e-06
-3.64374e-06
4.27977e-06
-2.73931e-06
6.66051e-06
-2.12527e-06
8.35483e-06
-2.2948e-06
9.34536e-06
-2.84445e-06
9.98783e-06
-3.40233e-06
1.04409e-05
-3.8898e-06
1.0778e-05
-4.29449e-06
1.10364e-05
-4.62053e-06
1.1235e-05
-4.88153e-06
1.13831e-05
-5.08852e-06
1.14893e-05
-5.24684e-06
1.15559e-05
-5.363e-06
1.15827e-05
-5.44176e-06
1.15829e-05
-5.48544e-06
1.15625e-05
-5.49866e-06
1.1518e-05
-5.48744e-06
1.14457e-05
-5.45193e-06
1.13457e-05
-5.3918e-06
1.12185e-05
-5.30971e-06
1.10621e-05
-5.20862e-06
1.08768e-05
-5.08862e-06
1.06643e-05
-4.94991e-06
1.04248e-05
-4.79357e-06
1.01581e-05
-4.61992e-06
9.86197e-06
-4.42875e-06
9.53804e-06
-4.2173e-06
9.18784e-06
-3.98317e-06
8.8147e-06
-3.72322e-06
8.42784e-06
-3.43367e-06
8.03253e-06
-3.11393e-06
7.63345e-06
-2.76281e-06
7.23808e-06
-2.3778e-06
6.8527e-06
-1.95676e-06
6.48902e-06
-1.49565e-06
6.1775e-06
-9.89887e-07
5.97776e-06
-4.41928e-07
6.11072e-06
8.47551e-08
6.33215e-06
4.82619e-07
6.20962e-06
6.22976e-07
6.05813e-06
7.91005e-07
5.95196e-06
9.76726e-07
5.81532e-06
1.11657e-06
5.65258e-06
1.22703e-06
5.48835e-06
1.31554e-06
5.33353e-06
1.38769e-06
5.19301e-06
1.44221e-06
5.06089e-06
1.45058e-06
4.8582e-06
1.38685e-06
4.55118e-06
1.28795e-06
4.13258e-06
1.17092e-06
3.65702e-06
1.11448e-06
3.22909e-06
1.14289e-06
2.90333e-06
1.22344e-06
2.71453e-06
1.32239e-06
2.65576e-06
1.34513e-06
2.54564e-06
1.2377e-06
2.25241e-06
1.01076e-06
1.94439e-06
8.26951e-07
1.89728e-06
7.00965e-07
1.88126e-06
4.87059e-07
1.88125e-06
4.67846e-08
2.14834e-06
-3.16792e-07
2.81018e-06
-1.09875e-06
3.67872e-06
-2.16019e-06
5.80216e-06
-4.84779e-06
8.95168e-06
-8.55168e-06
-1.8294e-05
-1.55736e-05
-2.84106e-05
-1.22767e-05
-2.63666e-05
-2.96158e-05
-2.4835e-05
-1.71913e-05
-2.48124e-05
-1.66321e-05
-2.40223e-05
-1.10322e-05
-2.39785e-05
-9.17457e-06
-2.31755e-05
-6.35403e-06
-2.25303e-05
-4.53647e-06
-2.12579e-05
-2.77066e-06
-2.05968e-05
-1.65285e-06
-7.25537e-07
1.69691e-09
-1.07778e-05
3.7942e-09
-1.09077e-05
7.07722e-09
-1.09075e-05
1.19192e-08
-1.08927e-05
1.85289e-08
-1.08716e-05
2.71269e-08
-1.08458e-05
3.7937e-08
-1.08155e-05
5.12311e-08
-1.07805e-05
6.73704e-08
-1.07406e-05
8.66648e-08
-1.06945e-05
1.09346e-07
-1.06411e-05
1.3573e-07
-1.05794e-05
1.66243e-07
-1.05082e-05
2.01355e-07
-1.04261e-05
2.41579e-07
-1.03315e-05
2.87492e-07
-1.0223e-05
3.39753e-07
-1.00988e-05
3.99132e-07
-9.95701e-06
4.66549e-07
-9.79557e-06
5.43124e-07
-9.61221e-06
6.30257e-07
-9.40439e-06
7.29754e-07
-9.16924e-06
8.44008e-07
-8.90354e-06
9.76303e-07
-8.60365e-06
1.13125e-06
-8.26549e-06
1.31546e-06
-7.88458e-06
1.53859e-06
-7.45621e-06
1.81499e-06
-6.97591e-06
2.16697e-06
-6.44042e-06
2.63376e-06
-5.85046e-06
3.28999e-06
-5.21924e-06
4.2279e-06
-4.58147e-06
5.46222e-06
-3.97362e-06
6.83381e-06
-3.49688e-06
7.98666e-06
-3.44769e-06
8.85818e-06
-3.71597e-06
9.51645e-06
-4.06059e-06
1.00217e-05
-4.39505e-06
1.04168e-05
-4.68956e-06
1.0732e-05
-4.93579e-06
1.09853e-05
-5.13475e-06
1.11867e-05
-5.28994e-06
1.13439e-05
-5.40409e-06
1.14616e-05
-5.48071e-06
1.15425e-05
-5.52265e-06
1.15882e-05
-5.5311e-06
1.16005e-05
-5.511e-06
1.15805e-05
-5.46745e-06
1.15295e-05
-5.40093e-06
1.14488e-05
-5.31107e-06
1.13388e-05
-5.19967e-06
1.11991e-05
-5.06898e-06
1.10303e-05
-4.91978e-06
1.08331e-05
-4.75268e-06
1.06079e-05
-4.56843e-06
1.03554e-05
-4.36742e-06
1.00761e-05
-4.1494e-06
9.77176e-06
-3.91297e-06
9.44511e-06
-3.65652e-06
9.10004e-06
-3.37815e-06
8.74221e-06
-3.07584e-06
8.37726e-06
-2.74898e-06
8.01162e-06
-2.39717e-06
7.65377e-06
-2.01994e-06
7.31469e-06
-1.61768e-06
7.01045e-06
-1.19141e-06
6.76498e-06
-7.44405e-07
6.61176e-06
-2.88695e-07
6.5403e-06
1.5622e-07
6.50724e-06
5.15687e-07
6.38049e-06
7.49738e-07
6.22777e-06
9.43732e-07
6.07809e-06
1.12642e-06
5.91475e-06
1.27993e-06
5.73945e-06
1.40235e-06
5.55623e-06
1.49879e-06
5.36683e-06
1.57711e-06
5.17419e-06
1.63486e-06
4.96581e-06
1.65896e-06
4.71231e-06
1.64034e-06
4.40989e-06
1.59037e-06
4.04901e-06
1.5318e-06
3.66216e-06
1.50134e-06
3.29754e-06
1.50754e-06
2.98661e-06
1.53441e-06
2.75366e-06
1.55535e-06
2.57494e-06
1.52384e-06
2.37902e-06
1.43362e-06
2.12762e-06
1.26217e-06
1.89091e-06
1.06366e-06
1.74446e-06
8.47418e-07
1.63611e-06
5.95417e-07
1.50234e-06
1.80563e-07
1.43006e-06
-2.4452e-07
1.36544e-06
-1.03413e-06
1.21084e-06
-2.00559e-06
6.34859e-07
-4.27181e-06
-7.1131e-07
-7.20551e-06
-5.57061e-06
-1.07143e-05
-9.92783e-06
-7.91947e-06
-1.74887e-05
-2.2055e-05
-1.88609e-05
-1.5819e-05
-2.06475e-05
-1.48455e-05
-2.0894e-05
-1.07857e-05
-2.12422e-05
-8.8264e-06
-2.10549e-05
-6.54132e-06
-2.0811e-05
-4.78039e-06
-2.04019e-05
-3.17976e-06
-2.00897e-05
-1.96504e-06
-9.29902e-07
6.33151e-09
-1.07841e-05
1.29629e-08
-1.09143e-05
2.08841e-08
-1.09155e-05
3.05083e-08
-1.09023e-05
4.21888e-08
-1.08833e-05
5.62919e-08
-1.08599e-05
7.31797e-08
-1.08324e-05
9.32217e-08
-1.08006e-05
1.16765e-07
-1.07641e-05
1.44193e-07
-1.07219e-05
1.75917e-07
-1.06728e-05
2.12383e-07
-1.06159e-05
2.5412e-07
-1.05499e-05
3.01726e-07
-1.04737e-05
3.55872e-07
-1.03857e-05
4.17311e-07
-1.02845e-05
4.86903e-07
-1.01684e-05
5.6564e-07
-1.00357e-05
6.54695e-07
-9.88463e-06
7.55476e-07
-9.71299e-06
8.69714e-07
-9.51862e-06
9.99592e-07
-9.29912e-06
1.14792e-06
-9.05187e-06
1.31841e-06
-8.77414e-06
1.51604e-06
-8.46312e-06
1.7476e-06
-8.11615e-06
2.02244e-06
-7.73105e-06
2.35342e-06
-7.30688e-06
2.75819e-06
-6.84518e-06
3.26003e-06
-6.35233e-06
3.88396e-06
-5.84321e-06
4.64692e-06
-5.34442e-06
5.56642e-06
-4.89316e-06
6.63677e-06
-4.56726e-06
7.66754e-06
-4.47846e-06
8.52567e-06
-4.57409e-06
9.21508e-06
-4.75e-06
9.76693e-06
-4.9469e-06
1.02117e-05
-5.13431e-06
1.05731e-05
-5.29721e-06
1.08676e-05
-5.42925e-06
1.1106e-05
-5.52834e-06
1.12962e-05
-5.59426e-06
1.14434e-05
-5.62795e-06
1.15511e-05
-5.63035e-06
1.16219e-05
-5.60187e-06
1.1657e-05
-5.54606e-06
1.16578e-05
-5.46828e-06
1.16265e-05
-5.36965e-06
1.15648e-05
-5.24937e-06
1.14734e-05
-5.10822e-06
1.13523e-05
-4.9479e-06
1.12021e-05
-4.76956e-06
1.10235e-05
-4.57409e-06
1.08174e-05
-4.36233e-06
1.05847e-05
-4.13474e-06
1.03266e-05
-3.89131e-06
1.00451e-05
-3.63144e-06
9.74287e-06
-3.35431e-06
9.42374e-06
-3.05902e-06
9.09268e-06
-2.74478e-06
8.7551e-06
-2.4114e-06
8.41702e-06
-2.05908e-06
8.08555e-06
-1.68847e-06
7.76894e-06
-1.30108e-06
7.47722e-06
-8.9969e-07
7.22232e-06
-4.8951e-07
7.01423e-06
-8.06063e-08
6.86895e-06
3.01495e-07
6.75341e-06
6.31216e-07
6.60855e-06
8.94591e-07
6.43906e-06
1.11322e-06
6.26145e-06
1.30402e-06
6.07619e-06
1.46518e-06
5.88216e-06
1.59637e-06
5.67866e-06
1.70227e-06
5.46624e-06
1.78952e-06
5.24392e-06
1.85716e-06
5.00477e-06
1.89809e-06
4.73462e-06
1.91049e-06
4.42343e-06
1.90156e-06
4.07233e-06
1.88291e-06
3.70426e-06
1.86939e-06
3.34644e-06
1.86535e-06
3.01902e-06
1.86181e-06
2.7292e-06
1.84516e-06
2.46149e-06
1.79153e-06
2.19934e-06
1.69576e-06
1.92154e-06
1.53998e-06
1.63728e-06
1.34792e-06
1.37445e-06
1.11024e-06
1.14985e-06
8.20022e-07
9.27064e-07
4.03345e-07
7.60138e-07
-7.75946e-08
5.37183e-07
-8.1118e-07
2.43783e-07
-1.71218e-06
-5.2459e-07
-3.50343e-06
-1.97584e-06
-5.75426e-06
-5.87425e-06
-6.81592e-06
-8.14952e-06
-5.6442e-06
-1.37684e-05
-1.64362e-05
-1.57656e-05
-1.38218e-05
-1.77119e-05
-1.28992e-05
-1.85115e-05
-9.98612e-06
-1.91246e-05
-8.21328e-06
-1.92926e-05
-6.37331e-06
-1.92706e-05
-4.80237e-06
-1.90614e-05
-3.38901e-06
-1.88686e-05
-2.15786e-06
-1.04506e-06
1.02424e-08
-1.07944e-05
2.07002e-08
-1.09248e-05
3.25532e-08
-1.09273e-05
4.63567e-08
-1.09161e-05
6.2594e-08
-1.08995e-05
8.17216e-08
-1.0879e-05
1.0418e-07
-1.08549e-05
1.30387e-07
-1.08268e-05
1.60697e-07
-1.07944e-05
1.9558e-07
-1.07568e-05
2.35601e-07
-1.07128e-05
2.81354e-07
-1.06616e-05
3.33494e-07
-1.06021e-05
3.92757e-07
-1.05329e-05
4.59954e-07
-1.04529e-05
5.35994e-07
-1.03605e-05
6.21896e-07
-1.02543e-05
7.18828e-07
-1.01327e-05
8.2815e-07
-9.99395e-06
9.51468e-07
-9.83631e-06
1.09071e-06
-9.65787e-06
1.24825e-06
-9.45665e-06
1.42703e-06
-9.23064e-06
1.63079e-06
-8.9779e-06
1.86433e-06
-8.69667e-06
2.13386e-06
-8.38569e-06
2.44744e-06
-8.04462e-06
2.81527e-06
-7.6747e-06
3.24991e-06
-7.27984e-06
3.7657e-06
-6.86818e-06
4.37645e-06
-6.454e-06
5.09137e-06
-6.05936e-06
5.91301e-06
-5.71481e-06
6.80776e-06
-5.462e-06
7.66739e-06
-5.33808e-06
8.42321e-06
-5.32989e-06
9.06663e-06
-5.39341e-06
9.6089e-06
-5.48917e-06
1.00649e-05
-5.59033e-06
1.04482e-05
-5.68051e-06
1.07695e-05
-5.75051e-06
1.10367e-05
-5.79554e-06
1.12557e-05
-5.81328e-06
1.14306e-05
-5.80286e-06
1.15644e-05
-5.76415e-06
1.16602e-05
-5.69771e-06
1.17205e-05
-5.60628e-06
1.17458e-05
-5.49365e-06
1.17373e-05
-5.36108e-06
1.16961e-05
-5.20824e-06
1.16236e-05
-5.03563e-06
1.15202e-05
-4.84455e-06
1.13869e-05
-4.63626e-06
1.12246e-05
-4.41182e-06
1.10345e-05
-4.17215e-06
1.08177e-05
-3.91792e-06
1.05758e-05
-3.64947e-06
1.03111e-05
-3.36676e-06
1.00265e-05
-3.06965e-06
9.72541e-06
-2.75795e-06
9.41227e-06
-2.43164e-06
9.09196e-06
-2.09109e-06
8.76996e-06
-1.73708e-06
8.45241e-06
-1.37092e-06
8.14622e-06
-9.94885e-07
7.85923e-06
-6.12711e-07
7.60044e-06
-2.30726e-07
7.37905e-06
1.40776e-07
7.18741e-06
4.93125e-07
7.0108e-06
8.07816e-07
6.8275e-06
1.07788e-06
6.63176e-06
1.30894e-06
6.42713e-06
1.50864e-06
6.21313e-06
1.67915e-06
5.98753e-06
1.82195e-06
5.74919e-06
1.94059e-06
5.4997e-06
2.039e-06
5.23974e-06
2.11712e-06
4.96554e-06
2.1723e-06
4.67158e-06
2.20445e-06
4.35534e-06
2.21779e-06
4.019e-06
2.21923e-06
3.67234e-06
2.21602e-06
3.3277e-06
2.20997e-06
2.99383e-06
2.19567e-06
2.67486e-06
2.16412e-06
2.36423e-06
2.10216e-06
2.05506e-06
2.00493e-06
1.73709e-06
1.85795e-06
1.4134e-06
1.67162e-06
1.08787e-06
1.43576e-06
7.70831e-07
1.13705e-06
4.21963e-07
7.52212e-07
4.68278e-08
2.97541e-07
-4.06452e-07
-3.57898e-07
-9.79434e-07
-1.1392e-06
-1.90726e-06
-2.5756e-06
-3.36942e-06
-4.29211e-06
-5.40261e-06
-4.78272e-06
-6.82446e-06
-4.22236e-06
-1.12015e-05
-1.20591e-05
-1.33872e-05
-1.16361e-05
-1.5325e-05
-1.09614e-05
-1.64556e-05
-8.85555e-06
-1.72084e-05
-7.46043e-06
-1.76288e-05
-5.95293e-06
-1.78183e-05
-4.61287e-06
-1.78556e-05
-3.3517e-06
-1.78315e-05
-2.182e-06
-1.07779e-06
1.34673e-08
-1.08078e-05
2.70906e-08
-1.09384e-05
4.22291e-08
-1.09424e-05
5.95907e-08
-1.09335e-05
7.97808e-08
-1.09197e-05
1.03329e-07
-1.09026e-05
1.30724e-07
-1.08822e-05
1.62434e-07
-1.08585e-05
1.98853e-07
-1.08308e-05
2.40538e-07
-1.07985e-05
2.88182e-07
-1.07605e-05
3.42513e-07
-1.0716e-05
4.04314e-07
-1.06639e-05
4.74444e-07
-1.06031e-05
5.53841e-07
-1.05323e-05
6.43538e-07
-1.04502e-05
7.44688e-07
-1.03555e-05
8.58593e-07
-1.02466e-05
9.86743e-07
-1.01221e-05
1.13086e-06
-9.98042e-06
1.29293e-06
-9.81994e-06
1.47534e-06
-9.63906e-06
1.68096e-06
-9.43625e-06
1.91326e-06
-9.2102e-06
2.17653e-06
-8.95994e-06
2.47602e-06
-8.68519e-06
2.81811e-06
-8.3867e-06
3.21026e-06
-8.06682e-06
3.66066e-06
-7.73023e-06
4.17732e-06
-7.38486e-06
4.7661e-06
-7.04278e-06
5.42746e-06
-6.7207e-06
6.15209e-06
-6.43942e-06
6.91172e-06
-6.22162e-06
7.65691e-06
-6.08325e-06
8.34651e-06
-6.01949e-06
8.96247e-06
-6.00937e-06
9.50272e-06
-6.02943e-06
9.97202e-06
-6.05963e-06
1.0377e-05
-6.08553e-06
1.07242e-05
-6.09767e-06
1.10189e-05
-6.09028e-06
1.12657e-05
-6.05999e-06
1.14678e-05
-6.00501e-06
1.16283e-05
-5.92462e-06
1.17497e-05
-5.81919e-06
1.1834e-05
-5.69056e-06
1.18817e-05
-5.54129e-06
1.18934e-05
-5.37282e-06
1.18707e-05
-5.1855e-06
1.18149e-05
-4.97982e-06
1.17271e-05
-4.75684e-06
1.16087e-05
-4.51776e-06
1.14606e-05
-4.26373e-06
1.12842e-05
-3.99579e-06
1.10811e-05
-3.71482e-06
1.08531e-05
-3.42149e-06
1.06026e-05
-3.11623e-06
1.03324e-05
-2.79942e-06
1.00459e-05
-2.47143e-06
9.74702e-06
-2.13281e-06
9.44031e-06
-1.78437e-06
9.13058e-06
-1.42735e-06
8.82317e-06
-1.06351e-06
8.52375e-06
-6.95465e-07
8.23816e-06
-3.27125e-07
7.9694e-06
3.80462e-08
7.72061e-06
3.89569e-07
7.49164e-06
7.22101e-07
7.27367e-06
1.02579e-06
7.05576e-06
1.29579e-06
6.83194e-06
1.53277e-06
6.60098e-06
1.7396e-06
6.36186e-06
1.91828e-06
6.11309e-06
2.07072e-06
5.85394e-06
2.19974e-06
5.58494e-06
2.308e-06
5.30575e-06
2.39632e-06
5.01361e-06
2.46444e-06
4.70482e-06
2.51324e-06
4.37738e-06
2.54524e-06
4.03279e-06
2.56382e-06
3.67697e-06
2.57183e-06
3.31748e-06
2.56946e-06
2.95986e-06
2.5533e-06
2.60642e-06
2.51756e-06
2.25409e-06
2.4545e-06
1.89949e-06
2.35954e-06
1.53431e-06
2.22312e-06
1.16014e-06
2.04579e-06
7.72772e-07
1.82313e-06
3.72477e-07
1.53735e-06
-6.23902e-08
1.18708e-06
-5.23428e-07
7.58581e-07
-1.0895e-06
2.08176e-07
-1.73683e-06
-4.91872e-07
-2.66394e-06
-1.64849e-06
-3.95739e-06
-2.99866e-06
-5.30042e-06
-3.43969e-06
-6.47953e-06
-3.04325e-06
-9.76212e-06
-8.77655e-06
-1.20486e-05
-9.34955e-06
-1.36626e-05
-9.34744e-06
-1.49096e-05
-7.60859e-06
-1.56867e-05
-6.68325e-06
-1.62183e-05
-5.42137e-06
-1.65188e-05
-4.31241e-06
-1.66638e-05
-3.20662e-06
-1.67175e-05
-2.12836e-06
-1.06248e-06
1.60053e-08
-1.08238e-05
3.21287e-08
-1.09545e-05
4.99102e-08
-1.09602e-05
7.01954e-08
-1.09537e-05
9.36988e-08
-1.09432e-05
1.21001e-07
-1.09299e-05
1.52634e-07
-1.09139e-05
1.89111e-07
-1.0895e-05
2.30904e-07
-1.08726e-05
2.78659e-07
-1.08462e-05
3.3318e-07
-1.0815e-05
3.95308e-07
-1.07781e-05
4.65942e-07
-1.07345e-05
5.46054e-07
-1.06832e-05
6.36692e-07
-1.06229e-05
7.39005e-07
-1.05525e-05
8.54259e-07
-1.04707e-05
9.83853e-07
-1.03762e-05
1.12934e-06
-1.02676e-05
1.29244e-06
-1.01435e-05
1.47514e-06
-1.00026e-05
1.67965e-06
-9.84357e-06
1.90863e-06
-9.66522e-06
2.16514e-06
-9.46671e-06
2.45281e-06
-9.24762e-06
2.77583e-06
-9.00822e-06
3.13895e-06
-8.74981e-06
3.54724e-06
-8.47507e-06
4.00559e-06
-8.18854e-06
4.51783e-06
-7.89708e-06
5.08527e-06
-7.6102e-06
5.70452e-06
-7.33993e-06
6.36499e-06
-7.09988e-06
7.04623e-06
-6.90286e-06
7.71955e-06
-6.75658e-06
8.35889e-06
-6.65884e-06
8.94814e-06
-6.59863e-06
9.48019e-06
-6.56148e-06
9.95407e-06
-6.53351e-06
1.03719e-05
-6.50339e-06
1.0737e-05
-6.46275e-06
1.10526e-05
-6.40586e-06
1.13216e-05
-6.32903e-06
1.15467e-05
-6.2301e-06
1.17302e-05
-6.10809e-06
1.18742e-05
-5.96317e-06
1.19801e-05
-5.79649e-06
1.20486e-05
-5.60977e-06
1.20802e-05
-5.40438e-06
1.20758e-05
-5.18117e-06
1.20369e-05
-4.9409e-06
1.19647e-05
-4.68461e-06
1.18605e-05
-4.41351e-06
1.17256e-05
-4.12884e-06
1.15616e-05
-3.83181e-06
1.13703e-05
-3.52351e-06
1.11537e-05
-3.20491e-06
1.09143e-05
-2.87682e-06
1.06549e-05
-2.54003e-06
1.03788e-05
-2.19531e-06
1.00896e-05
-1.84358e-06
9.79122e-06
-1.48602e-06
9.48798e-06
-1.1241e-06
9.18427e-06
-7.5979e-07
8.88442e-06
-3.9561e-07
8.59162e-06
-3.43293e-08
8.31098e-06
3.18697e-07
8.04272e-06
6.57832e-07
7.78621e-06
9.78621e-07
7.53685e-06
1.27516e-06
7.28879e-06
1.54385e-06
7.03765e-06
1.78392e-06
6.78094e-06
1.99633e-06
6.51684e-06
2.1824e-06
6.24377e-06
2.34381e-06
5.96086e-06
2.48266e-06
5.668e-06
2.60087e-06
5.36482e-06
2.6995e-06
5.05006e-06
2.7792e-06
4.72223e-06
2.84107e-06
4.38072e-06
2.88677e-06
4.02658e-06
2.91797e-06
3.66268e-06
2.93574e-06
3.29249e-06
2.93966e-06
2.91839e-06
2.9274e-06
2.54088e-06
2.89508e-06
2.15766e-06
2.83771e-06
1.76558e-06
2.75162e-06
1.35853e-06
2.63017e-06
9.3494e-07
2.46938e-06
4.87906e-07
2.27016e-06
1.1784e-08
2.01347e-06
-5.05176e-07
1.70404e-06
-1.06906e-06
1.32246e-06
-1.72164e-06
8.60759e-07
-2.46411e-06
2.50599e-07
-3.39759e-06
-7.15005e-07
-4.57675e-06
-1.81951e-06
-5.63601e-06
-2.38042e-06
-6.62281e-06
-2.05645e-06
-9.17162e-06
-6.22775e-06
-1.11784e-05
-7.34277e-06
-1.2542e-05
-7.98385e-06
-1.37035e-05
-6.4471e-06
-1.44576e-05
-5.9291e-06
-1.50039e-05
-4.87516e-06
-1.53604e-05
-3.95585e-06
-1.55706e-05
-2.99644e-06
-1.56775e-05
-2.02146e-06
-1.02059e-06
1.78305e-08
-1.08417e-05
3.57639e-08
-1.09725e-05
5.55055e-08
-1.098e-05
7.80386e-08
-1.09763e-05
1.04152e-07
-1.09693e-05
1.34473e-07
-1.09602e-05
1.69569e-07
-1.0949e-05
2.09999e-07
-1.09354e-05
2.56336e-07
-1.0919e-05
3.09325e-07
-1.08992e-05
3.69865e-07
-1.08755e-05
4.389e-07
-1.08471e-05
5.17437e-07
-1.0813e-05
6.06557e-07
-1.07723e-05
7.07424e-07
-1.07238e-05
8.21288e-07
-1.06664e-05
9.4949e-07
-1.05989e-05
1.09347e-06
-1.05202e-05
1.25474e-06
-1.04289e-05
1.43497e-06
-1.03238e-05
1.63601e-06
-1.02037e-05
1.85993e-06
-1.00675e-05
2.10906e-06
-9.91435e-06
2.38605e-06
-9.7437e-06
2.69383e-06
-9.55541e-06
3.03561e-06
-9.35001e-06
3.4147e-06
-9.12892e-06
3.83431e-06
-8.89466e-06
4.29697e-06
-8.65118e-06
4.8039e-06
-8.404e-06
5.35394e-06
-8.16024e-06
5.94231e-06
-7.92831e-06
6.55939e-06
-7.71696e-06
7.19019e-06
-7.53367e-06
7.81607e-06
-7.38247e-06
8.41922e-06
-7.262e-06
8.98646e-06
-7.16588e-06
9.50993e-06
-7.08495e-06
9.98607e-06
-7.00964e-06
1.04141e-05
-6.9314e-06
1.07947e-05
-6.84335e-06
1.11292e-05
-6.74041e-06
1.14193e-05
-6.61906e-06
1.16663e-05
-6.47716e-06
1.18719e-05
-6.31372e-06
1.20375e-05
-6.12874e-06
1.21641e-05
-5.92304e-06
1.22522e-05
-5.6979e-06
1.23024e-05
-5.45461e-06
1.23155e-05
-5.19429e-06
1.22927e-05
-4.91801e-06
1.2235e-05
-4.62697e-06
1.2144e-05
-4.32248e-06
1.20211e-05
-4.00594e-06
1.1868e-05
-3.67874e-06
1.16867e-05
-3.34219e-06
1.14793e-05
-2.99752e-06
1.12484e-05
-2.64587e-06
1.09967e-05
-2.28833e-06
1.07273e-05
-1.92599e-06
1.04438e-05
-1.56005e-06
1.01496e-05
-1.19186e-06
9.84856e-06
-8.23035e-07
9.54426e-06
-4.55492e-07
9.24033e-06
-9.16792e-08
8.94071e-06
2.65286e-07
8.64734e-06
6.12065e-07
8.36067e-06
9.44508e-07
8.08048e-06
1.2588e-06
7.80442e-06
1.55122e-06
7.52913e-06
1.81914e-06
7.25155e-06
2.0615e-06
6.96945e-06
2.27843e-06
6.68107e-06
2.47078e-06
6.38502e-06
2.63986e-06
6.08043e-06
2.78724e-06
5.76691e-06
2.91438e-06
5.44398e-06
3.02242e-06
5.11076e-06
3.11241e-06
4.76626e-06
3.18556e-06
4.40998e-06
3.24305e-06
4.04226e-06
3.28569e-06
3.6643e-06
3.3137e-06
3.27753e-06
3.32644e-06
2.88274e-06
3.32218e-06
2.47954e-06
3.29828e-06
2.06587e-06
3.25138e-06
1.63883e-06
3.17866e-06
1.19347e-06
3.07552e-06
7.25867e-07
2.93698e-06
2.29757e-07
2.76627e-06
-3.00943e-07
2.54417e-06
-8.79682e-07
2.28278e-06
-1.51118e-06
1.95396e-06
-2.22226e-06
1.57183e-06
-3.03185e-06
1.06019e-06
-4.00453e-06
2.57681e-07
-5.15966e-06
-6.64382e-07
-6.22721e-06
-1.31287e-06
-7.26226e-06
-1.0214e-06
-9.30094e-06
-4.18907e-06
-1.07657e-05
-5.87805e-06
-1.18837e-05
-6.86586e-06
-1.28002e-05
-5.5306e-06
-1.34893e-05
-5.23999e-06
-1.39815e-05
-4.38293e-06
-1.4335e-05
-3.60238e-06
-1.45643e-05
-2.76711e-06
-1.46934e-05
-1.89234e-06
-9.65839e-07
1.89037e-08
-1.08606e-05
3.79039e-08
-1.09915e-05
5.88705e-08
-1.10009e-05
8.28983e-08
-1.10003e-05
1.10842e-07
-1.09973e-05
1.43358e-07
-1.09927e-05
1.81058e-07
-1.09867e-05
2.24549e-07
-1.09789e-05
2.7451e-07
-1.09689e-05
3.31792e-07
-1.09565e-05
3.97388e-07
-1.09411e-05
4.72355e-07
-1.09221e-05
5.57814e-07
-1.08985e-05
6.54961e-07
-1.08694e-05
7.65059e-07
-1.08339e-05
8.89413e-07
-1.07907e-05
1.02936e-06
-1.07389e-05
1.18628e-06
-1.06771e-05
1.36166e-06
-1.06042e-05
1.55705e-06
-1.05192e-05
1.77422e-06
-1.04208e-05
2.01506e-06
-1.03083e-05
2.28163e-06
-1.01809e-05
2.57612e-06
-1.00382e-05
2.90082e-06
-9.88012e-06
3.25806e-06
-9.70728e-06
3.65003e-06
-9.5209e-06
4.07849e-06
-9.32314e-06
4.54442e-06
-9.11712e-06
5.04745e-06
-8.90704e-06
5.58519e-06
-8.69801e-06
6.1526e-06
-8.49572e-06
6.74139e-06
-8.30576e-06
7.34024e-06
-8.13253e-06
7.93588e-06
-7.97811e-06
8.51535e-06
-7.84147e-06
9.06799e-06
-7.71852e-06
9.58625e-06
-7.60321e-06
1.00654e-05
-7.48883e-06
1.05031e-05
-7.36905e-06
1.08982e-05
-7.23843e-06
1.12505e-05
-7.09276e-06
1.15605e-05
-6.92899e-06
1.18286e-05
-6.74525e-06
1.20555e-05
-6.54064e-06
1.22419e-05
-6.31516e-06
1.23884e-05
-6.06952e-06
1.24953e-05
-5.80485e-06
1.25632e-05
-5.52246e-06
1.25926e-05
-5.22371e-06
1.25846e-05
-4.90994e-06
1.25402e-05
-4.5826e-06
1.24609e-05
-4.24322e-06
1.23484e-05
-3.89337e-06
1.22043e-05
-3.53467e-06
1.20308e-05
-3.16865e-06
1.183e-05
-2.79679e-06
1.16047e-05
-2.4205e-06
1.13575e-05
-2.04114e-06
1.10915e-05
-1.66002e-06
1.081e-05
-1.27854e-06
1.05163e-05
-8.98189e-07
1.02139e-05
-5.20591e-07
9.90598e-06
-1.47596e-07
9.59537e-06
2.18929e-07
9.28525e-06
5.75406e-07
8.97735e-06
9.19961e-07
8.67252e-06
1.24932e-06
8.37075e-06
1.56056e-06
8.07092e-06
1.85103e-06
7.77112e-06
2.11892e-06
7.4693e-06
2.36329e-06
7.16364e-06
2.58408e-06
6.85257e-06
2.78183e-06
6.5349e-06
2.95752e-06
6.20978e-06
3.11235e-06
5.8766e-06
3.24755e-06
5.53473e-06
3.36427e-06
5.18341e-06
3.46372e-06
4.8219e-06
3.54705e-06
4.44979e-06
3.61515e-06
4.067e-06
3.66847e-06
3.67374e-06
3.70695e-06
3.27018e-06
3.72999e-06
2.85598e-06
3.73636e-06
2.42996e-06
3.7243e-06
1.98978e-06
3.69155e-06
1.53245e-06
3.63597e-06
1.05313e-06
3.55483e-06
5.46699e-07
3.44341e-06
7.49129e-09
3.30548e-06
-5.71816e-07
3.12347e-06
-1.20186e-06
2.91282e-06
-1.89154e-06
2.64364e-06
-2.65768e-06
2.33798e-06
-3.51193e-06
1.91443e-06
-4.50923e-06
1.25498e-06
-5.67212e-06
4.98511e-07
-6.90665e-06
-7.83483e-08
-8.05591e-06
1.27858e-07
-9.71607e-06
-2.52892e-06
-1.0615e-05
-4.97912e-06
-1.14929e-05
-5.98795e-06
-1.21141e-05
-4.90942e-06
-1.26852e-05
-4.66885e-06
-1.31121e-05
-3.95609e-06
-1.34279e-05
-3.28653e-06
-1.36483e-05
-2.54672e-06
-1.37798e-05
-1.7609e-06
-9.09516e-07
1.91724e-08
-1.08797e-05
3.84376e-08
-1.10107e-05
5.98174e-08
-1.10223e-05
8.45042e-08
-1.1025e-05
1.13408e-07
-1.10262e-05
1.47211e-07
-1.10265e-05
1.86575e-07
-1.1026e-05
2.32158e-07
-1.10245e-05
2.8473e-07
-1.10215e-05
3.45271e-07
-1.10171e-05
4.14901e-07
-1.10108e-05
4.94806e-07
-1.1002e-05
5.86232e-07
-1.09899e-05
6.90457e-07
-1.09737e-05
8.08755e-07
-1.09522e-05
9.42398e-07
-1.09244e-05
1.09268e-06
-1.08891e-05
1.26094e-06
-1.08453e-05
1.44865e-06
-1.07919e-05
1.65735e-06
-1.07279e-05
1.88868e-06
-1.06522e-05
2.14437e-06
-1.0564e-05
2.42619e-06
-1.04627e-05
2.73591e-06
-1.03479e-05
3.07526e-06
-1.02195e-05
3.44585e-06
-1.00779e-05
3.84898e-06
-9.92405e-06
4.28543e-06
-9.7596e-06
4.75512e-06
-9.58682e-06
5.25676e-06
-9.40869e-06
5.78744e-06
-9.2287e-06
6.34227e-06
-9.05055e-06
6.91418e-06
-8.87768e-06
7.49422e-06
-8.71257e-06
8.07231e-06
-8.5562e-06
8.63841e-06
-8.40757e-06
9.18371e-06
-8.26381e-06
9.70123e-06
-8.12071e-06
1.01859e-05
-7.97348e-06
1.06342e-05
-7.81739e-06
1.10441e-05
-7.64827e-06
1.14141e-05
-7.46278e-06
1.17436e-05
-7.25848e-06
1.20322e-05
-7.03385e-06
1.22798e-05
-6.78826e-06
1.24865e-05
-6.52184e-06
1.26523e-05
-6.23535e-06
1.27774e-05
-5.92997e-06
1.28621e-05
-5.60715e-06
1.29069e-05
-5.26848e-06
1.29126e-05
-4.91561e-06
1.28803e-05
-4.55028e-06
1.28113e-05
-4.17429e-06
1.27074e-05
-3.78947e-06
1.25704e-05
-3.39767e-06
1.24025e-05
-3.00069e-06
1.22059e-05
-2.60024e-06
1.19834e-05
-2.19796e-06
1.17377e-05
-1.79542e-06
1.14718e-05
-1.39415e-06
1.11889e-05
-9.95657e-07
1.08922e-05
-6.01457e-07
1.05848e-05
-2.13188e-07
1.02696e-05
1.67587e-07
9.95016e-06
5.38364e-07
9.62808e-06
8.97488e-07
9.30529e-06
1.24275e-06
8.98279e-06
1.57182e-06
8.66087e-06
1.88248e-06
8.33905e-06
2.17285e-06
8.01632e-06
2.44163e-06
7.69146e-06
2.68814e-06
7.3632e-06
2.91233e-06
7.03034e-06
3.11468e-06
6.69185e-06
3.296e-06
6.3469e-06
3.4573e-06
5.99477e-06
3.59968e-06
5.63473e-06
3.7243e-06
5.26607e-06
3.83237e-06
4.88813e-06
3.92498e-06
4.50038e-06
4.0029e-06
4.10239e-06
4.06646e-06
3.69369e-06
4.11564e-06
3.27364e-06
4.15003e-06
2.84115e-06
4.16884e-06
2.39448e-06
4.17096e-06
1.93105e-06
4.15498e-06
1.44767e-06
4.11935e-06
9.39448e-07
4.06305e-06
4.01049e-07
3.9818e-06
-1.72331e-07
3.87885e-06
-7.90994e-07
3.74213e-06
-1.46119e-06
3.58301e-06
-2.19391e-06
3.37635e-06
-2.99783e-06
3.1419e-06
-3.88333e-06
2.79993e-06
-4.90404e-06
2.27568e-06
-6.10301e-06
1.69748e-06
-7.48854e-06
1.30717e-06
-8.79701e-06
1.43632e-06
-1.01925e-05
-1.13342e-06
-1.05922e-05
-4.57941e-06
-1.12183e-05
-5.36185e-06
-1.16214e-05
-4.50639e-06
-1.20222e-05
-4.26798e-06
-1.23579e-05
-3.62044e-06
-1.2616e-05
-3.02835e-06
-1.28092e-05
-2.35357e-06
-1.29298e-05
-1.6403e-06
-8.57508e-07
1.85751e-08
-1.08983e-05
3.72367e-08
-1.10294e-05
5.81432e-08
-1.10432e-05
8.25613e-08
-1.10494e-05
1.11469e-07
-1.10551e-05
1.45574e-07
-1.10606e-05
1.85587e-07
-1.10661e-05
2.322e-07
-1.10711e-05
2.86289e-07
-1.10756e-05
3.4902e-07
-1.10798e-05
4.2168e-07
-1.10834e-05
5.05582e-07
-1.10859e-05
6.02026e-07
-1.10864e-05
7.12259e-07
-1.10839e-05
8.37491e-07
-1.10774e-05
9.78969e-07
-1.10658e-05
1.13802e-06
-1.10482e-05
1.31603e-06
-1.10234e-05
1.51447e-06
-1.09904e-05
1.73484e-06
-1.09482e-05
1.97867e-06
-1.0896e-05
2.24749e-06
-1.08328e-05
2.5428e-06
-1.0758e-05
2.86604e-06
-1.06711e-05
3.21849e-06
-1.05719e-05
3.60118e-06
-1.04606e-05
4.01476e-06
-1.03376e-05
4.45933e-06
-1.02042e-05
4.93415e-06
-1.00616e-05
5.43742e-06
-9.91196e-06
5.96604e-06
-9.75731e-06
6.5154e-06
-9.59991e-06
7.07941e-06
-9.44168e-06
7.65068e-06
-9.28384e-06
8.2211e-06
-9.12661e-06
8.78246e-06
-8.96892e-06
9.32722e-06
-8.80856e-06
9.84893e-06
-8.64242e-06
1.03424e-05
-8.46695e-06
1.08036e-05
-8.27861e-06
1.12296e-05
-8.07426e-06
1.16182e-05
-7.85134e-06
1.19677e-05
-7.608e-06
1.22771e-05
-7.3432e-06
1.25454e-05
-7.05664e-06
1.27723e-05
-6.74868e-06
1.29572e-05
-6.42029e-06
1.31001e-05
-6.07284e-06
1.3201e-05
-5.70803e-06
1.32602e-05
-5.32771e-06
1.32785e-05
-4.93389e-06
1.32569e-05
-4.52865e-06
1.31967e-05
-4.1141e-06
1.30996e-05
-3.6924e-06
1.29676e-05
-3.26567e-06
1.28029e-05
-2.83597e-06
1.26079e-05
-2.40527e-06
1.23854e-05
-1.97542e-06
1.21382e-05
-1.5482e-06
1.18693e-05
-1.12526e-06
1.15818e-05
-7.08214e-07
1.12789e-05
-2.9854e-07
1.09634e-05
1.02324e-07
1.06389e-05
4.92057e-07
1.03076e-05
8.69653e-07
9.97174e-06
1.23338e-06
9.633e-06
1.5815e-06
9.29255e-06
1.91228e-06
8.95092e-06
2.22411e-06
8.60811e-06
2.51567e-06
8.26371e-06
2.78604e-06
7.91701e-06
3.03483e-06
7.56722e-06
3.26212e-06
7.21348e-06
3.46842e-06
6.85499e-06
3.6545e-06
6.49096e-06
3.82134e-06
6.12065e-06
3.97e-06
5.74332e-06
4.10165e-06
5.3582e-06
4.21749e-06
4.96459e-06
4.31859e-06
4.56179e-06
4.40569e-06
4.14906e-06
4.4792e-06
3.72547e-06