/*--------------------------------*- C++ -*----------------------------------*\
| =========                 |                                                 |
| \\      /  F ield         | OpenFOAM: The Open Source CFD Toolbox           |
|  \\    /   O peration     | Version:  v2106                                 |
|   \\  /    A nd           | Website:  www.openfoam.com                      |
|    \\/     M anipulation  |                                                 |
\*---------------------------------------------------------------------------*/
FoamFile
{
    version     2.0;
    format      ascii;
    arch        "LSB;label=32;scalar=64";
    class       volVectorField;
    location    "1.6";
    object      U;
}
// * * * * * * * * * * * * * * * * * * * * * * * * * * * * * * * * * * * * * //

dimensions      [0 1 -1 0 0 0 0];

internalField   nonuniform List<vector> 
29678
(
(-0.0899258 -1.59497e-25 -4.93678e-05)
(-0.090983 4.3394e-22 -0.000134086)
(-0.0909367 5.85923e-21 -0.000198845)
(-0.0907665 9.30397e-20 -0.000239698)
(-0.0905477 4.17647e-19 -0.000264342)
(-0.0902914 4.66873e-19 -0.000276727)
(-0.0899974 5.04368e-19 -0.000279251)
(-0.0896622 4.19869e-19 -0.000272645)
(-0.0892804 -8.98613e-19 -0.00025632)
(-0.0888434 2.93194e-19 -0.000231397)
(-0.0883416 -7.48329e-19 -0.00019668)
(-0.0877638 4.8962e-19 -0.000151532)
(-0.0870977 -8.23579e-19 -9.41386e-05)
(-0.0863322 2.43482e-19 -2.25165e-05)
(-0.0854546 -7.50617e-19 6.51925e-05)
(-0.0844508 3.86366e-19 0.000170791)
(-0.0833052 -7.01725e-19 0.000295936)
(-0.0820004 -6.92478e-19 0.000442505)
(-0.0805169 4.40547e-19 0.000612676)
(-0.0788326 -7.49993e-19 0.000808916)
(-0.0769216 -7.81321e-19 0.00103418)
(-0.0747534 -6.84696e-19 0.00129222)
(-0.0722906 -4.75379e-20 0.00158809)
(-0.0694868 -2.10466e-19 0.00192908)
(-0.0662817 -2.43086e-19 0.00232671)
(-0.0625941 -1.78847e-19 0.00280074)
(-0.0583093 -3.50459e-20 0.00338872)
(-0.0532555 3.79036e-19 0.00416915)
(-0.0471595 -5.39414e-19 0.00531904)
(-0.0395652 -5.48533e-19 0.0072452)
(-0.0296776 -5.02047e-19 0.0107681)
(-0.0160474 -5.84245e-20 0.0172347)
(0.0041479 -1.62824e-19 0.0290675)
(0.0236399 1.90204e-19 0.0482523)
(0.00870792 2.54274e-19 0.0673394)
(-0.00796034 2.23258e-19 0.078712)
(-0.0182977 1.8935e-19 0.0843893)
(-0.0254439 1.12727e-19 0.0878775)
(-0.0306829 3.42377e-19 0.0903154)
(-0.0346247 1.89209e-19 0.0921336)
(-0.0377177 3.33377e-19 0.0935275)
(-0.0402295 2.16717e-19 0.0945605)
(-0.0421861 4.48798e-19 0.0952823)
(-0.0437538 1.70984e-19 0.0957494)
(-0.0450436 -5.32242e-19 0.0959339)
(-0.0458355 1.40148e-19 0.0958663)
(-0.0462824 6.19882e-19 0.0956376)
(-0.0465954 1.82674e-19 0.0952454)
(-0.0467817 2.70336e-19 0.0946232)
(-0.0467491 -8.12285e-20 0.093748)
(-0.0465171 5.50851e-19 0.0926441)
(-0.0461687 1.00678e-19 0.0913068)
(-0.0456511 -2.58556e-19 0.0897178)
(-0.0449446 -3.19327e-19 0.0878946)
(-0.0440958 2.42434e-19 0.085848)
(-0.0431083 2.25867e-19 0.0835737)
(-0.0420231 9.57237e-20 0.08105)
(-0.0407393 1.57984e-19 0.0782654)
(-0.0392446 7.71551e-20 0.0752368)
(-0.0374795 1.78325e-19 0.0719782)
(-0.0353058 9.12824e-20 0.0685467)
(-0.0327953 1.36979e-19 0.0650168)
(-0.0299445 -1.5979e-19 0.0614243)
(-0.0266743 2.47349e-19 0.0578239)
(-0.0229708 3.63867e-19 0.0542973)
(-0.0186612 -3.24762e-20 0.0509546)
(-0.013246 -2.32226e-19 0.0480867)
(-0.00607752 -1.59489e-19 0.046398)
(0.00373248 -1.03297e-19 0.0469489)
(0.00785996 1.95452e-19 0.0492155)
(0.00275736 5.05761e-20 0.0500447)
(0.00412799 -1.48027e-19 0.048535)
(0.006518 -6.26153e-20 0.0473176)
(0.00680616 9.34917e-20 0.0462793)
(0.00736225 2.32245e-21 0.0448333)
(0.00816658 -6.34361e-20 0.0433564)
(0.00899544 -6.74884e-21 0.0419671)
(0.0101515 1.28746e-19 0.040955)
(0.0107179 -2.0584e-19 0.0404643)
(0.00893992 3.83975e-20 0.0398637)
(0.00541747 4.33197e-20 0.0380551)
(0.00222371 1.31175e-19 0.0346307)
(0.000817027 -1.57891e-19 0.0302823)
(0.00216477 -2.88612e-20 0.0260742)
(0.0056076 1.55085e-19 0.0230925)
(0.00929404 -1.17192e-19 0.0220922)
(0.0117519 -2.95369e-20 0.022456)
(0.00874554 -4.50864e-20 0.0228885)
(0.00340223 8.72006e-20 0.0217134)
(0.00285029 -9.62414e-20 0.0192161)
(0.00664677 1.5977e-20 0.0184245)
(0.00505118 2.15555e-20 0.0202945)
(0.00158672 -5.12655e-20 0.0211441)
(0.00363131 -7.49113e-21 0.0240809)
(0.00477431 -3.33213e-20 0.0286673)
(0.00101218 -2.00284e-20 0.0403321)
(0.00062723 2.43312e-20 0.0535655)
(-0.0118883 -5.33464e-20 0.0889115)
(-0.639875 9.52175e-20 0.108102)
(-0.278413 9.43896e-19 -0.432466)
(-0.213484 -8.86243e-21 -0.186681)
(-0.113145 -2.48848e-19 -0.301456)
(-0.130662 -2.29012e-19 -0.212619)
(-0.0720094 1.51767e-19 -0.244271)
(-0.0719281 -3.92547e-19 -0.213907)
(-0.0356796 -3.94942e-19 -0.217708)
(-0.0244874 -6.34206e-20 -0.204124)
(0.000707534 4.05403e-19 -0.194322)
(-0.00132312 2.6935e-20 -0.182538)
(0.000816405 -3.70265e-19 -0.176666)
(-0.089811 -3.73963e-23 -1.79734e-05)
(-0.0908856 5.04259e-22 -4.89779e-05)
(-0.0908665 1.91196e-20 -7.30461e-05)
(-0.0907224 4.02354e-19 -8.11158e-05)
(-0.090525 -7.72067e-21 -7.56287e-05)
(-0.0902863 -1.88244e-20 -5.62617e-05)
(-0.0900079 -2.17358e-21 -2.34395e-05)
(-0.0896878 3.56465e-19 2.34292e-05)
(-0.0893232 -3.76875e-19 8.48843e-05)
(-0.0889042 -4.84441e-20 0.000161167)
(-0.0884197 -5.20376e-19 0.000256047)
(-0.0878616 5.85688e-19 0.000372297)
(-0.0872192 -5.47354e-19 0.000511668)
(-0.0864807 -6.60062e-20 0.000677079)
(-0.085633 -4.9125e-19 0.000871383)
(-0.0846623 4.41136e-19 0.00109763)
(-0.0835533 -4.27379e-19 0.00135915)
(-0.082289 -3.78498e-19 0.00165985)
(-0.0808507 7.55461e-19 0.00200437)
(-0.0792169 -3.82769e-19 0.00239829)
(-0.0773634 -4.14264e-19 0.00284858)
(-0.0752616 -3.62732e-19 0.00336419)
(-0.0728779 -5.14827e-20 0.00395709)
(-0.0701713 -3.92796e-19 0.00464394)
(-0.0670921 9.66065e-21 0.00544892)
(-0.0635783 -5.47788e-19 0.00640814)
(-0.0595538 4.01335e-19 0.00757661)
(-0.0549277 5.40285e-19 0.00903642)
(-0.0496038 -1.72607e-19 0.0108978)
(-0.0435185 -1.99405e-19 0.0132794)
(-0.0367366 -2.09977e-19 0.0163462)
(-0.0295607 -8.36397e-20 0.0207248)
(-0.0226865 -4.46002e-19 0.0284847)
(-0.0183138 -5.50106e-20 0.0442299)
(-0.020118 1.00314e-19 0.0628917)
(-0.0248451 3.41014e-21 0.0750092)
(-0.0294391 -8.85246e-20 0.0816652)
(-0.0333364 -1.94914e-19 0.0859695)
(-0.0365303 6.22635e-20 0.0890382)
(-0.039116 -1.43094e-19 0.0913624)
(-0.0411936 -4.34569e-20 0.0931602)
(-0.0428419 -9.55962e-20 0.0945235)
(-0.0440987 8.01886e-21 0.0955175)
(-0.0450145 -3.38146e-19 0.0961905)
(-0.0456124 -4.53167e-20 0.0965263)
(-0.0459324 7.73012e-20 0.096596)
(-0.0460303 -3.69551e-19 0.0964939)
(-0.045968 -5.7747e-20 0.0962299)
(-0.0457271 6.07956e-19 0.0957542)
(-0.0452809 1.06714e-19 0.0950318)
(-0.0446519 4.45551e-19 0.0940847)
(-0.0438655 2.30732e-19 0.0929063)
(-0.042918 -3.08518e-20 0.0914815)
(-0.0418095 -2.04459e-19 0.0898217)
(-0.0405489 2.58916e-19 0.087938)
(-0.0391378 1.86509e-20 0.0858313)
(-0.0375745 -1.19685e-19 0.0834886)
(-0.0358334 -6.98346e-21 0.0809029)
(-0.0338942 -4.35266e-20 0.0780904)
(-0.0317284 1.49035e-19 0.0750688)
(-0.0293021 4.94224e-20 0.0718901)
(-0.0266107 6.81692e-20 0.0686223)
(-0.0236429 -2.2197e-19 0.0653051)
(-0.0203769 1.96753e-19 0.0619868)
(-0.0167974 2.99205e-19 0.0587272)
(-0.0128742 1.38389e-19 0.0555904)
(-0.00857748 -1.42476e-19 0.0527343)
(-0.00400062 1.48991e-19 0.0504684)
(0.000426621 -8.37374e-20 0.0499923)
(0.00362307 7.05531e-20 0.0517341)
(0.00494729 -9.09549e-20 0.0525597)
(0.00643468 -1.94114e-19 0.0513706)
(0.00802987 1.12505e-20 0.0501386)
(0.00918904 1.99407e-19 0.0490989)
(0.0101487 2.30523e-19 0.0478417)
(0.0109345 -3.08172e-19 0.0464493)
(0.011561 1.26913e-19 0.04511)
(0.0120111 -1.36746e-20 0.0438688)
(0.011994 -1.84059e-20 0.0427188)
(0.0112851 1.00003e-19 0.0413648)
(0.0100652 2.17564e-20 0.0392571)
(0.00904565 8.38181e-21 0.0362176)
(0.00870732 -1.71495e-19 0.0324995)
(0.00912136 2.77322e-19 0.0287616)
(0.0100921 -5.7759e-20 0.0255933)
(0.0109107 -1.15759e-19 0.0234122)
(0.0108782 2.88591e-20 0.0221343)
(0.0097426 5.28226e-20 0.0215333)
(0.00783372 4.88416e-20 0.0202265)
(0.00633559 -2.40509e-20 0.0176034)
(0.00511601 9.29435e-20 0.0154732)
(0.00313631 -5.48062e-20 0.0158167)
(-0.000571065 8.05877e-21 0.0150935)
(-0.00414579 6.89983e-20 0.0170325)
(-0.011193 1.1237e-20 0.0187527)
(-0.021066 7.07277e-20 0.0277335)
(-0.0435678 3.63994e-20 0.0342288)
(-0.0750885 -8.47527e-20 0.0645703)
(-0.13627 6.61e-21 0.0767848)
(-0.113939 4.94401e-18 -0.346733)
(-0.257701 1.31828e-19 -0.172216)
(-0.14402 -4.49163e-19 -0.243372)
(-0.143366 -2.20264e-19 -0.187921)
(-0.0939404 5.26732e-20 -0.213602)
(-0.078579 3.73661e-20 -0.195092)
(-0.0541165 4.42239e-20 -0.199329)
(-0.0391332 -7.46722e-20 -0.190313)
(-0.0242605 -2.43302e-20 -0.182753)
(-0.0145421 -4.8486e-19 -0.173302)
(-0.00634099 1.97578e-19 -0.168581)
(-0.0898076 -8.61417e-23 6.44071e-06)
(-0.0908861 -6.93596e-22 2.17775e-05)
(-0.0908771 -6.04136e-21 4.17435e-05)
(-0.0907451 -6.14831e-20 7.60658e-05)
(-0.0905609 -3.50442e-19 0.000123058)
(-0.0903366 -4.07043e-19 0.000186047)
(-0.0900736 -4.42743e-19 0.000266527)
(-0.0897705 -3.52602e-19 0.000366702)
(-0.0894243 8.42255e-19 0.000488314)
(-0.0890258 -3.38711e-19 0.000635125)
(-0.0885652 6.94211e-19 0.000809625)
(-0.0880342 -3.20341e-19 0.00101355)
(-0.087422 6.977e-19 0.00124998)
(-0.0867168 -3.20802e-19 0.00152271)
(-0.0859059 7.05782e-19 0.00183582)
(-0.0849759 -3.48514e-19 0.00219387)
(-0.0839121 6.08073e-19 0.00260197)
(-0.0826983 6.55241e-19 0.00306608)
(-0.0813168 -3.62558e-19 0.00359321)
(-0.0797477 6.32811e-19 0.00419182)
(-0.0779685 6.63173e-19 0.00487232)
(-0.0759538 6.17153e-19 0.00564796)
(-0.0736741 3.10547e-20 0.00653604)
(-0.0710953 1.14927e-19 0.00755989)
(-0.0681779 2.63012e-19 0.0087519)
(-0.0648761 1.7852e-19 0.010158)
(-0.0611379 1.08585e-19 0.0118446)
(-0.0569066 -3.16587e-19 0.0139093)
(-0.0521212 4.18308e-19 0.0165)
(-0.0467098 4.35966e-19 0.0198595)
(-0.040561 4.14578e-19 0.0244391)
(-0.0335666 8.86651e-20 0.0309574)
(-0.0260708 1.5329e-19 0.0399409)
(-0.0199003 -1.04581e-19 0.0508947)
(-0.0198724 -1.78416e-19 0.061702)
(-0.0235131 -2.10403e-21 0.0703804)
(-0.0276437 -1.37981e-19 0.0768266)
(-0.0314348 -2.25757e-19 0.0816867)
(-0.034686 7.95703e-20 0.0854298)
(-0.0374039 -1.1673e-19 0.0883698)
(-0.0396414 -2.79582e-19 0.0907127)
(-0.0414535 -1.83254e-19 0.0925795)
(-0.0428742 1.87945e-19 0.0940459)
(-0.0439533 -1.28729e-19 0.0951663)
(-0.04474 -4.96193e-20 0.0959781)
(-0.0452173 7.40638e-19 0.0964804)
(-0.0453953 -3.85575e-19 0.0966996)
(-0.0452924 -5.9794e-19 0.0966575)
(-0.0449364 -2.0361e-19 0.0963609)
(-0.0443565 1.13149e-19 0.095812)
(-0.0435852 -9.82564e-20 0.0950153)
(-0.042651 -6.26297e-19 0.093975)
(-0.0415625 -1.66012e-20 0.092689)
(-0.0403244 -1.78227e-19 0.0911626)
(-0.0389446 -3.85306e-19 0.089402)
(-0.0374266 8.82531e-20 0.0874116)
(-0.0357683 1.55603e-19 0.0851948)
(-0.0339526 -4.18536e-19 0.0827602)
(-0.0319616 -5.24614e-19 0.0801268)
(-0.029773 -2.18578e-19 0.0773217)
(-0.0273613 1.05359e-19 0.0743846)
(-0.0247198 -5.61502e-20 0.0713648)
(-0.0218417 -3.96273e-19 0.0683121)
(-0.0187125 7.69653e-20 0.0652873)
(-0.0153206 2.47756e-21 0.0623703)
(-0.011645 -2.95379e-19 0.0596697)
(-0.00766569 -1.01924e-19 0.0573472)
(-0.00343366 1.32413e-19 0.0556466)
(0.000869657 5.07982e-20 0.0546839)
(0.00413855 -1.59343e-19 0.0542884)
(0.00566966 -3.07997e-20 0.0537084)
(0.00704322 2.12689e-19 0.0525924)
(0.00850067 -7.24879e-21 0.0513246)
(0.00967995 -1.57592e-19 0.0500127)
(0.010593 1.48331e-19 0.0486008)
(0.0112924 -5.00061e-20 0.0471068)
(0.0118386 -1.61564e-19 0.0455638)
(0.0122109 -5.12697e-20 0.0439669)
(0.012288 1.71063e-19 0.0422816)
(0.0119256 -7.36366e-20 0.0403411)
(0.0112626 -1.07661e-19 0.0380248)
(0.0105844 -7.68797e-20 0.0352751)
(0.0101773 1.3272e-19 0.0321668)
(0.0102264 -2.81429e-20 0.029041)
(0.0105632 -1.536e-19 0.0262077)
(0.0109772 1.07991e-19 0.0239307)
(0.010987 -3.66678e-20 0.0221262)
(0.0103677 -1.89631e-20 0.0205742)
(0.00884432 -3.29738e-20 0.0187887)
(0.00729946 5.4122e-20 0.0167024)
(0.00604483 -7.54615e-20 0.0150411)
(0.00448587 -4.11853e-20 0.0141187)
(0.00116106 8.74883e-21 0.0128298)
(-0.00168592 -4.63908e-20 0.012594)
(-0.00813483 -2.03996e-20 0.0113037)
(-0.0163114 -2.79995e-20 0.0112215)
(-0.0390551 -5.23068e-20 0.00937118)
(-0.0689908 1.19237e-19 0.00123211)
(-0.118161 1.8294e-20 -0.0145277)
(-0.0803161 3.33234e-20 -0.0671998)
(-0.223409 3.95105e-19 -0.113552)
(-0.140236 4.78028e-20 -0.16674)
(-0.133074 1.4131e-19 -0.156724)
(-0.0917505 -5.04236e-20 -0.180001)
(-0.0754184 2.8632e-19 -0.173115)
(-0.0532803 1.1387e-19 -0.178015)
(-0.0376693 -9.4647e-20 -0.174432)
(-0.0230817 -2.50418e-19 -0.171887)
(-0.0137279 2.10797e-19 -0.168341)
(-0.00620296 3.38235e-19 -0.165717)
(-0.0898421 -8.56806e-23 2.59607e-05)
(-0.0909239 -1.33827e-21 7.94034e-05)
(-0.0909253 -2.12784e-20 0.00013733)
(-0.0908067 -4.16759e-19 0.000210807)
(-0.0906381 4.24647e-19 0.000298512)
(-0.090432 3.76037e-19 0.000405267)
(-0.0901897 4.69456e-19 0.000533771)
(-0.0899099 -2.08135e-20 0.000687136)
(-0.0895902 -4.19042e-19 0.000867634)
(-0.0892214 4.20448e-19 0.00107901)
(-0.0887931 -3.9193e-19 0.00132497)
(-0.0882974 -4.58599e-20 0.00160839)
(-0.0877242 -3.89686e-19 0.00193339)
(-0.0870625 3.62997e-19 0.0023047)
(-0.0863 -2.97125e-19 0.00272763)
(-0.0854239 -3.68299e-20 0.00320811)
(-0.0844204 -3.8405e-19 0.00375285)
(-0.0832743 -3.85418e-19 0.00436953)
(-0.0819691 -3.90016e-19 0.00506716)
(-0.080487 -3.83578e-19 0.00585643)
(-0.0788079 -3.23265e-19 0.00675035)
(-0.0769101 -2.55763e-19 0.00776509)
(-0.0747691 -1.04175e-20 0.00892131)
(-0.0723585 3.25037e-19 0.0102459)
(-0.0696496 -2.37913e-19 0.0117746)
(-0.0666128 6.17776e-19 0.0135558)
(-0.0632196 -4.18938e-19 0.0156558)
(-0.059448 -4.22077e-19 0.0181659)
(-0.0552918 -3.38813e-19 0.0212113)
(-0.0507826 -2.58118e-19 0.0249614)
(-0.0460455 -1.88824e-19 0.0296203)
(-0.0414449 -3.16452e-20 0.035369)
(-0.0377219 3.98928e-19 0.0423535)
(-0.0357006 4.37802e-19 0.050642)
(-0.0357461 6.52659e-20 0.059478)
(-0.0371628 2.09819e-19 0.0674838)
(-0.0390788 1.48486e-19 0.0740257)
(-0.041035 5.55068e-20 0.0792387)
(-0.0428111 4.03743e-19 0.0834059)
(-0.0443073 1.96405e-19 0.0867676)
(-0.0454938 3.06587e-19 0.0894967)
(-0.0463705 4.65513e-20 0.0917084)
(-0.0469456 3.4635e-19 0.0934823)
(-0.0472319 1.65473e-19 0.0948752)
(-0.0472358 -5.52387e-19 0.0959246)
(-0.0469642 7.96201e-19 0.0966572)
(-0.0464771 6.35581e-19 0.0970846)
(-0.0458561 9.926e-20 0.0972208)
(-0.045103 3.45016e-20 0.0970878)
(-0.0441913 -2.70234e-20 0.0967008)
(-0.0431171 5.42939e-19 0.0960622)
(-0.0418897 -1.19397e-19 0.0951759)
(-0.040514 -5.05807e-19 0.0940443)
(-0.038994 -2.72367e-19 0.0926728)
(-0.0373338 2.63979e-19 0.0910685)
(-0.0355349 4.29353e-20 0.089239)
(-0.0335939 1.61691e-19 0.0871926)
(-0.0315021 1.56346e-19 0.0849414)
(-0.0292496 3.97528e-20 0.0825048)
(-0.0268255 5.58324e-21 0.0799101)
(-0.0242203 4.91371e-20 0.0771938)
(-0.0214307 1.0528e-19 0.0744)
(-0.0184559 -2.06353e-19 0.0715765)
(-0.0152984 2.4813e-19 0.0687771)
(-0.0119695 3.62774e-19 0.0660655)
(-0.00849585 -1.71014e-19 0.0635164)
(-0.00493535 -3.0628e-19 0.0612199)
(-0.00140906 -2.63949e-19 0.0592688)
(0.00185537 -2.48249e-20 0.057782)
(0.0046229 1.7566e-19 0.0567021)
(0.00672194 4.54553e-20 0.0556493)
(0.00851724 -2.32536e-19 0.054374)
(0.0101236 -6.23529e-20 0.0529414)
(0.0114763 1.48926e-19 0.0514328)
(0.0125779 -1.08789e-19 0.0498573)
(0.0134721 -5.37205e-20 0.0482085)
(0.0142286 1.28918e-19 0.0464788)
(0.0148356 6.20576e-20 0.0446646)
(0.0151929 -1.95484e-19 0.0427427)
(0.0152588 -4.34231e-21 0.0406242)
(0.0151227 9.29721e-20 0.038205)
(0.0149034 7.60499e-20 0.0354437)
(0.0147883 -1.59265e-19 0.0324363)
(0.0148398 -3.88499e-20 0.0293983)
(0.01494 1.61283e-19 0.0265265)
(0.0149449 -1.22233e-19 0.0239538)
(0.0145451 -4.38878e-20 0.0216008)
(0.0136734 3.9426e-21 0.0193983)
(0.0122424 4.37223e-20 0.0171737)
(0.0105625 -6.43345e-20 0.0147714)
(0.00848179 1.44269e-21 0.0125064)
(0.00583817 2.21125e-20 0.0105787)
(0.00212752 -2.54537e-20 0.00836027)
(-0.00203747 5.30688e-21 0.00734836)
(-0.00840285 -2.79611e-20 0.00516607)
(-0.0162258 5.81993e-21 0.00382121)
(-0.0315443 5.64233e-20 0.000375501)
(-0.0517835 7.03626e-20 -0.009471)
(-0.0634999 7.02038e-20 -0.0250666)
(-0.0541509 -2.17971e-19 -0.0613539)
(-0.153678 5.72553e-19 -0.0882612)
(-0.123744 1.64989e-20 -0.133776)
(-0.115618 -1.0982e-19 -0.134733)
(-0.0871208 2.42335e-19 -0.156043)
(-0.0715516 -3.35573e-20 -0.15536)
(-0.0548449 -2.56696e-19 -0.161643)
(-0.0412578 -1.17812e-19 -0.160808)
(-0.0290314 3.81114e-19 -0.159937)
(-0.0184387 1.05551e-19 -0.157874)
(-0.0089026 -2.99101e-19 -0.156281)
(-0.0899121 -4.21495e-23 4.24841e-05)
(-0.0909962 -2.51464e-22 0.000128083)
(-0.0910088 -1.98487e-21 0.000217848)
(-0.0909054 4.6787e-21 0.000324989)
(-0.0907555 1.4422e-20 0.000448803)
(-0.0905715 2.14158e-20 0.000595298)
(-0.0903548 1.95702e-20 0.000767825)
(-0.0901038 -4.35235e-20 0.000970118)
(-0.0898158 2.47491e-20 0.0012042)
(-0.0894822 1.38036e-20 0.00147459)
(-0.0890932 -1.22622e-20 0.00178604)
(-0.0886411 -5.10507e-20 0.00214253)
(-0.0881165 6.64014e-20 0.00254935)
(-0.0875089 2.16811e-20 0.00301235)
(-0.0868067 3.34863e-20 0.00353801)
(-0.0859979 4.65444e-20 0.00413348)
(-0.0850694 9.26571e-20 0.00480677)
(-0.0840075 3.70819e-20 0.00556699)
(-0.0827971 -7.5288e-20 0.00642461)
(-0.0814223 5.99446e-20 0.00739198)
(-0.0798659 4.92757e-20 0.00848376)
(-0.0781098 5.00707e-21 0.00971771)
(-0.0761348 -6.44904e-20 0.0111159)
(-0.0739214 7.51063e-20 0.012706)
(-0.0714508 1.31598e-22 0.0145232)
(-0.0687067 1.29763e-19 0.016613)
(-0.0656792 7.65305e-20 0.0190343)
(-0.0623698 -1.68977e-19 0.0218627)
(-0.0588019 8.69991e-20 0.0251926)
(-0.0550374 8.81956e-20 0.0291363)
(-0.0512007 2.92944e-20 0.0338129)
(-0.0474983 -1.54766e-19 0.0393211)
(-0.0442074 1.99841e-21 0.0457148)
(-0.0417189 1.4907e-19 0.052874)
(-0.0405311 -1.9395e-20 0.0602276)
(-0.0405893 1.81075e-20 0.0670287)
(-0.0413944 -4.14058e-20 0.0729182)
(-0.0425191 -2.59165e-19 0.0778953)
(-0.0436932 1.1364e-19 0.0820752)
(-0.0447628 -1.80074e-20 0.0855827)
(-0.045648 1.64765e-20 0.0885228)
(-0.0463104 -1.58259e-19 0.0909751)
(-0.0467336 4.66068e-22 0.0929984)
(-0.0469147 -1.78357e-19 0.0946356)
(-0.0468564 -8.04913e-20 0.0959169)
(-0.0465634 3.00036e-19 0.0968672)
(-0.0460506 -2.24618e-19 0.0975075)
(-0.0453385 -1.91734e-20 0.0978544)
(-0.0444322 2.30148e-19 0.0979209)
(-0.0433327 4.6e-20 0.0977136)
(-0.0420514 6.27101e-19 0.0972391)
(-0.0406044 1.3385e-19 0.0965047)
(-0.039004 -3.44998e-19 0.095517)
(-0.0372605 -9.97394e-20 0.0942837)
(-0.035383 4.26029e-19 0.0928133)
(-0.0333776 -1.77592e-19 0.0911155)
(-0.0312463 -3.63493e-20 0.0892019)
(-0.0289878 9.4011e-20 0.0870881)
(-0.0265989 1.6867e-20 0.0847947)
(-0.0240762 8.81321e-20 0.0823487)
(-0.0214179 1.41229e-20 0.079783)
(-0.0186257 5.74506e-20 0.0771363)
(-0.0157053 -2.5363e-19 0.074452)
(-0.0126665 2.30607e-19 0.0717782)
(-0.00952572 3.80047e-19 0.069169)
(-0.00630972 9.02382e-20 0.0666855)
(-0.0030615 -2.33441e-19 0.0643971)
(0.00013671 1.47371e-19 0.0623814)
(0.00317704 2.43126e-21 0.0606553)
(0.00586892 4.22022e-20 0.0591235)
(0.00810571 -2.47298e-20 0.0576384)
(0.00999518 -2.32492e-19 0.0560785)
(0.0116294 -4.42962e-20 0.0544247)
(0.0130123 2.07613e-19 0.0526904)
(0.0141464 2.175e-19 0.0508684)
(0.0150604 -3.54524e-19 0.0489416)
(0.0157928 1.34843e-19 0.0469071)
(0.0163399 7.56658e-20 0.0447806)
(0.0166674 -2.94257e-20 0.0425548)
(0.0167673 -1.4276e-21 0.0401889)
(0.0166911 -1.268e-20 0.0376478)
(0.0165357 2.93143e-20 0.0349273)
(0.0164087 -1.43499e-19 0.0320748)
(0.0163394 1.73143e-19 0.0291856)
(0.0162627 -4.09463e-20 0.026349)
(0.0160647 -1.18386e-19 0.0236251)
(0.015587 -3.06839e-21 0.0209883)
(0.0147911 3.39122e-20 0.0184138)
(0.0135415 3.12246e-20 0.0158129)
(0.0119935 -2.54503e-20 0.0131007)
(0.0100446 1.49452e-20 0.0104283)
(0.00761012 3.16002e-21 0.00779919)
(0.00436249 -3.98546e-20 0.00492217)
(0.000645113 1.01624e-21 0.00220171)
(-0.00538903 -1.47242e-20 -0.00144104)
(-0.0124363 -5.90939e-21 -0.00521709)
(-0.0262783 6.00416e-20 -0.0110659)
(-0.0428243 2.30116e-20 -0.021517)
(-0.048118 -1.38612e-19 -0.034364)
(-0.0411073 -7.66914e-18 -0.0469641)
(-0.118165 2.30095e-19 -0.0764696)
(-0.106926 -2.52526e-19 -0.108011)
(-0.0995903 -1.76489e-19 -0.116898)
(-0.0790464 9.85978e-20 -0.136735)
(-0.0655424 1.95957e-19 -0.138969)
(-0.0514967 -5.68668e-20 -0.146709)
(-0.0392084 1.52473e-20 -0.147796)
(-0.0279309 9.05928e-20 -0.148908)
(-0.0179008 -4.5586e-19 -0.148747)
(-0.00874418 1.08049e-19 -0.148325)
(-0.0900118 -2.99916e-23 5.60773e-05)
(-0.0910975 8.49495e-23 0.00016826)
(-0.0911224 2.68551e-21 0.000284358)
(-0.0910364 -4.02881e-21 0.000419872)
(-0.0909084 1.4758e-20 0.000574737)
(-0.0907505 1.04263e-19 0.000755999)
(-0.0905637 -3.09325e-20 0.000967472)
(-0.0903465 1.14919e-20 0.00121321)
(-0.0900952 4.24178e-19 0.00149537)
(-0.0898026 -7.616e-20 0.00181936)
(-0.0894598 4.1743e-19 0.00219076)
(-0.0890594 2.63953e-20 0.00261455)
(-0.0885926 3.75529e-19 0.00309716)
(-0.0880494 -1.29201e-21 0.0036455)
(-0.087419 3.30448e-19 0.00426706)
(-0.08669 2.40682e-20 0.00497007)
(-0.0858504 3.08822e-19 0.00576358)
(-0.0848877 4.15379e-19 0.00665786)
(-0.0837884 -3.38467e-19 0.00766446)
(-0.0825386 2.27659e-19 0.00879677)
(-0.0811237 2.97269e-19 0.0100703)
(-0.079529 2.81658e-19 0.011503)
(-0.0777397 -1.24206e-20 0.0131167)
(-0.0757423 2.36898e-19 0.0149378)
(-0.0735257 3.16554e-20 0.0169983)
(-0.0710836 2.53096e-19 0.0193379)
(-0.0684181 3.08779e-19 0.0220047)
(-0.0655444 -3.43954e-19 0.0250563)
(-0.0624989 1.8088e-21 0.0285581)
(-0.0593497 1.84576e-19 0.0325781)
(-0.056209 2.60994e-19 0.0371757)
(-0.0532415 -2.76772e-20 0.0423792)
(-0.0506656 1.47805e-19 0.0481537)
(-0.0487558 2.85143e-19 0.0543455)
(-0.0477363 1.72361e-19 0.0606375)
(-0.0475143 1.16374e-19 0.0666515)
(-0.0477987 1.47645e-19 0.0721292)
(-0.0483175 -2.46963e-19 0.0769774)
(-0.0488788 1.47017e-19 0.0812058)
(-0.0493608 1.14867e-19 0.0848634)
(-0.0496914 1.72916e-19 0.088007)
(-0.0498296 9.76216e-20 0.0906873)
(-0.0497537 1.06357e-19 0.0929466)
(-0.0494531 2.88561e-20 0.0948182)
(-0.0489245 -7.21982e-19 0.096329)
(-0.048173 5.13608e-19 0.0975016)
(-0.0472198 4.29055e-19 0.0983543)
(-0.0460956 -6.06322e-20 0.0988988)
(-0.0448164 3.2964e-20 0.0991431)
(-0.0433829 -1.02438e-19 0.0990958)
(-0.0417971 4.24656e-19 0.0987672)
(-0.0400664 -3.64943e-20 0.0981675)
(-0.0382001 -4.4531e-19 0.0973062)
(-0.0362065 -4.36655e-19 0.0961932)
(-0.0340927 1.52704e-19 0.0948388)
(-0.0318644 -4.29e-21 0.093255)
(-0.0295252 -9.96314e-20 0.0914558)
(-0.0270767 -1.60263e-21 0.0894582)
(-0.0245196 -7.76309e-20 0.0872838)
(-0.0218547 -7.66318e-22 0.0849587)
(-0.0190842 -6.41211e-20 0.0825136)
(-0.0162129 6.52724e-21 0.0799837)
(-0.013249 -3.46904e-19 0.0774077)
(-0.0102051 1.677e-19 0.0748282)
(-0.00710044 3.10454e-19 0.0722908)
(-0.00396447 -2.1443e-19 0.0698438)
(-0.00084778 -3.27731e-19 0.0675227)
(0.00218793 -3.42193e-19 0.0653606)
(0.00503112 -5.44082e-20 0.0633655)
(0.00759773 2.12792e-19 0.0615033)
(0.00984304 4.03935e-20 0.0596935)
(0.0117945 -2.51827e-19 0.0578637)
(0.0134916 -9.59559e-20 0.0559791)
(0.014951 2.19723e-19 0.0540298)
(0.0161893 -1.2761e-19 0.0520054)
(0.0172362 -1.1367e-19 0.0498938)
(0.0181206 1.94489e-19 0.0476926)
(0.0188474 3.20896e-20 0.0454077)
(0.0194058 -1.43856e-19 0.0430293)
(0.0197981 -8.54265e-20 0.0405285)
(0.0200481 1.23416e-19 0.0378791)
(0.0201909 2.7614e-20 0.0350774)
(0.0202585 -1.38058e-19 0.0321537)
(0.0202526 -8.81766e-20 0.0291658)
(0.0201353 1.18687e-19 0.0261699)
(0.0198459 -9.32844e-20 0.0232023)
(0.0193038 -1.00081e-19 0.0202505)
(0.0184699 3.62068e-20 0.0173125)
(0.0172589 1.93395e-20 0.0143192)
(0.015711 -2.55212e-20 0.011232)
(0.0137662 -7.16279e-20 0.00807705)
(0.0112843 9.37192e-21 0.00483673)
(0.00818291 8.04312e-22 0.00130879)
(0.00443162 -3.51497e-20 -0.00229295)
(-0.000507917 -1.64732e-20 -0.00659967)
(-0.00664779 -2.11294e-20 -0.0113959)
(-0.017002 4.16728e-21 -0.0176179)
(-0.0293608 -3.53529e-20 -0.0276052)
(-0.0327815 -1.49462e-19 -0.0375445)
(-0.0293529 -2.20112e-19 -0.043699)
(-0.0848183 1.52031e-19 -0.0717332)
(-0.0874691 -2.28459e-19 -0.0939358)
(-0.084185 1.01328e-19 -0.104862)
(-0.0685602 3.26912e-19 -0.123259)
(-0.05901 -1.41199e-20 -0.126124)
(-0.0475629 -3.98129e-19 -0.134407)
(-0.0374604 -1.29856e-19 -0.136523)
(-0.0276485 3.16644e-19 -0.138531)
(-0.0182254 1.22764e-19 -0.13925)
(-0.00905145 -3.06519e-19 -0.13944)
(-0.0901355 -2.90461e-23 6.67444e-05)
(-0.0912225 4.71088e-22 0.00019989)
(-0.0912607 8.906e-21 0.000336871)
(-0.0911944 -1.51102e-20 0.000495467)
(-0.0910917 -3.23516e-21 0.000676117)
(-0.0909637 -2.11262e-21 0.00088674)
(-0.0908111 1.6512e-21 0.00113153)
(-0.0906321 -4.46034e-21 0.00141461)
(-0.0904227 -4.17552e-19 0.0017387)
(-0.0901768 -5.06248e-19 0.00211025)
(-0.089887 -3.34148e-19 0.00253543)
(-0.0895462 2.92339e-21 0.00302018)
(-0.089146 -3.82238e-19 0.0035719)
(-0.088677 -4.63281e-19 0.00419844)
(-0.0881291 -3.45997e-19 0.00490824)
(-0.0874917 -4.08712e-20 0.00571046)
(-0.0867539 -3.2888e-19 0.00661511)
(-0.0859041 -2.86408e-19 0.00763337)
(-0.0849305 5.24225e-20 0.00877749)
(-0.0838209 -3.06732e-19 0.0100611)
(-0.0825627 -2.82541e-19 0.0114997)
(-0.0811441 -2.64707e-19 0.0131106)
(-0.0795539 -1.96184e-19 0.014914)
(-0.0777831 -3.38399e-19 0.0169336)
(-0.0758259 1.00141e-19 0.0191974)
(-0.0736827 -3.21266e-19 0.0217377)
(-0.0713621 9.74291e-19 0.0245919)
(-0.0688854 2.83573e-20 0.0278008)
(-0.0662916 -2.45864e-19 0.0314063)
(-0.0636432 -1.81919e-19 0.0354454)
(-0.0610312 -1.63439e-19 0.0399404)
(-0.0585766 -2.90154e-19 0.0448837)
(-0.0564231 -4.73545e-19 0.0502179)
(-0.0547161 6.79749e-20 0.0558154)
(-0.053547 3.95849e-19 0.0614742)
(-0.0528824 7.67488e-20 0.0669661)
(-0.0525877 4.78142e-19 0.0721108)
(-0.0525022 -9.10705e-20 0.0768068)
(-0.0524881 -5.06864e-20 0.0810179)
(-0.0524438 2.21885e-19 0.0847487)
(-0.0522993 6.35871e-20 0.0880223)
(-0.0520092 2.26318e-19 0.0908665)
(-0.0515454 6.53841e-20 0.0933081)
(-0.0508918 2.19664e-19 0.0953706)
(-0.0500416 -3.29256e-19 0.0970747)
(-0.0489968 6.59552e-20 0.098439)
(-0.0477682 2.81591e-19 0.0994787)
(-0.0463713 3.67315e-20 0.100203)
(-0.0448167 3.90601e-19 0.100618)
(-0.0431096 7.8965e-20 0.100731)
(-0.0412553 7.28657e-19 0.100549)
(-0.0392618 4.46151e-19 0.100084)
(-0.0371389 9.82677e-20 0.0993472)
(-0.0348964 3.73294e-19 0.0983485)
(-0.0325436 4.53812e-19 0.0971006)
(-0.0300892 -3.4703e-19 0.0956172)
(-0.0275398 -7.68315e-20 0.0939142)
(-0.0249012 2.24712e-19 0.0920103)
(-0.0221781 7.31972e-20 0.0899275)
(-0.0193757 2.16769e-19 0.087691)
(-0.0165002 8.71331e-20 0.0853296)
(-0.0135605 4.35201e-19 0.0828751)
(-0.0105683 -1.41407e-19 0.0803616)
(-0.00753983 -2.92587e-20 0.0778254)
(-0.00449783 3.35244e-19 0.075303)
(-0.00147492 1.1788e-19 0.0728244)
(0.00149229 -2.17914e-19 0.0704286)
(0.00435877 -5.08804e-20 0.0681371)
(0.00706518 -1.82533e-21 0.0659462)
(0.00955309 2.50196e-19 0.0638375)
(0.0117894 2.1256e-20 0.0617684)
(0.0137722 -4.55595e-19 0.0596948)
(0.0155167 -2.18231e-20 0.0575865)
(0.0170366 4.29758e-19 0.0554242)
(0.0183467 7.95695e-20 0.0531925)
(0.0194653 -3.14206e-19 0.0508796)
(0.0204076 3.36226e-19 0.0484812)
(0.0211773 7.9206e-20 0.045998)
(0.0217752 -1.87982e-19 0.0434247)
(0.0222109 8.04785e-20 0.0407489)
(0.0225053 1.50049e-19 0.0379604)
(0.0226833 2.95385e-20 0.0350605)
(0.0227646 -2.40534e-19 0.0320654)
(0.0227503 2.47931e-19 0.0290021)
(0.0226174 4.41023e-20 0.0258962)
(0.0223248 -1.43939e-19 0.0227614)
(0.0218186 9.23167e-20 0.0195854)
(0.0210616 1.00996e-19 0.016362)
(0.0199888 2.63574e-20 0.0130347)
(0.0185767 -1.96e-20 0.00958748)
(0.0168146 8.94085e-20 0.00597074)
(0.0145426 2.20098e-20 0.00217925)
(0.0117739 1.22658e-20 -0.00198865)
(0.0083531 6.03128e-20 -0.00642719)
(0.00408441 9.38893e-21 -0.0115358)
(-0.00144182 4.77654e-20 -0.0172326)
(-0.0102452 1.65789e-19 -0.0235866)
(-0.0203725 2.46921e-20 -0.03395)
(-0.0244036 -3.17483e-19 -0.0412198)
(-0.0212298 -9.71572e-18 -0.0461726)
(-0.0617098 9.4476e-20 -0.0707196)
(-0.068544 -2.96135e-19 -0.086045)
(-0.0719636 -4.60921e-20 -0.0974971)
(-0.058125 2.76485e-19 -0.112772)
(-0.052453 2.28141e-20 -0.116312)
(-0.0428027 -3.16715e-19 -0.123846)
(-0.0344277 -7.69421e-20 -0.126721)
(-0.0258627 4.27677e-19 -0.129124)
(-0.0173158 -3.28408e-19 -0.13041)
(-0.00869608 -1.91803e-19 -0.130995)
(-0.0902774 -5.75591e-23 7.44016e-05)
(-0.0913655 6.72253e-22 0.000222647)
(-0.0914182 2.23059e-20 0.000374817)
(-0.0913741 4.33339e-19 0.000550861)
(-0.0912998 -4.55763e-20 0.000751605)
(-0.0912053 -8.03701e-20 0.000985624)
(-0.0910907 -1.45627e-20 0.00125746)
(-0.0909542 1.05961e-20 0.00157112)
(-0.0907916 3.95671e-19 0.00193033)
(-0.0905984 5.94378e-20 0.00234257)
(-0.0903682 3.7797e-19 0.00281446)
(-0.0900946 7.92576e-20 0.0033529)
(-0.0897694 4.02053e-19 0.00396613)
(-0.089384 6.40979e-20 0.00466293)
(-0.0889288 3.66581e-19 0.00545267)
(-0.0883942 8.72361e-20 0.00634545)
(-0.08777 3.73296e-19 0.00735209)
(-0.0870458 4.22479e-19 0.00848416)
(-0.0862108 3.99232e-19 0.00975406)
(-0.085254 3.28712e-19 0.0111749)
(-0.0841645 3.70767e-19 0.0127614)
(-0.0829324 3.28438e-19 0.0145297)
(-0.0815495 -3.2736e-19 0.0164982)
(-0.0800098 -4.44396e-19 0.0186875)
(-0.0783111 5.43766e-19 0.021121)
(-0.076457 -5.74532e-19 0.0238242)
(-0.074459 9.17766e-19 0.0268245)
(-0.0723391 4.14525e-19 0.0301489)
(-0.0701331 1.96837e-19 0.0338219)
(-0.067893 2.84063e-19 0.0378595)
(-0.0656888 3.0104e-19 0.0422625)
(-0.0636058 -1.76823e-19 0.0470067)
(-0.0617369 -4.86049e-19 0.0520326)
(-0.0601653 -2.99322e-19 0.0572388)
(-0.0589367 6.77096e-20 0.0624864)
(-0.058034 -5.68417e-20 0.0676233)
(-0.0573844 4.25117e-20 0.0725186)
(-0.0568902 -3.77967e-20 0.0770818)
(-0.0564544 -3.09997e-19 0.0812636)
(-0.0559953 -6.37157e-20 0.0850451)
(-0.0554505 -9.26302e-20 0.0884259)
(-0.0547759 8.79995e-20 0.0914147)
(-0.0539422 -1.21351e-19 0.094024)
(-0.052932 -1.9702e-20 0.0962669)
(-0.0517372 1.53692e-19 0.0981564)
(-0.050359 -5.37914e-19 0.0997047)
(-0.0488054 -1.29609e-19 0.100922)
(-0.0470884 -1.50875e-19 0.101816)
(-0.0452189 7.35415e-20 0.102392)
(-0.0432049 -4.90205e-20 0.102656)