/*--------------------------------*- C++ -*----------------------------------*\
| =========                 |                                                 |
| \\      /  F ield         | OpenFOAM: The Open Source CFD Toolbox           |
|  \\    /   O peration     | Version:  v2106                                 |
|   \\  /    A nd           | Website:  www.openfoam.com                      |
|    \\/     M anipulation  |                                                 |
\*---------------------------------------------------------------------------*/
FoamFile
{
    version     2.0;
    format      ascii;
    arch        "LSB;label=32;scalar=64";
    class       volScalarField;
    location    "0.6";
    object      k;
}
// * * * * * * * * * * * * * * * * * * * * * * * * * * * * * * * * * * * * * //

dimensions      [0 2 -2 0 0 0 0];

internalField   nonuniform List<scalar> 
29678
(
0.000148591
0.000201359
0.000210451
0.000212846
0.000213703
0.000214058
0.000214208
0.000214269
0.000214292
0.000214301
0.000214306
0.000214309
0.000214311
0.000214314
0.000214317
0.00021432
0.000214324
0.000214328
0.000214332
0.000214336
0.00021434
0.000214345
0.00021435
0.000214356
0.000214361
0.000214367
0.000214373
0.00021438
0.000214387
0.000214394
0.000214401
0.000214409
0.000214416
0.000214424
0.000214433
0.000214441
0.00021445
0.000214459
0.000214468
0.000214477
0.000214486
0.000214495
0.000214503
0.000214512
0.00021452
0.000214528
0.000214536
0.000214543
0.000214549
0.000214555
0.000214559
0.000214563
0.000214566
0.000214568
0.000214568
0.000214567
0.000214565
0.000214562
0.000214556
0.000214549
0.000214541
0.00021453
0.000214518
0.000214505
0.000214489
0.000214473
0.000214455
0.000214437
0.000214418
0.000214399
0.000214381
0.000214364
0.000214349
0.000214336
0.000214326
0.00021432
0.00021432
0.000214324
0.000214336
0.000214355
0.000214382
0.000214419
0.000214465
0.000214522
0.000214589
0.000214666
0.000214751
0.000214841
0.000214934
0.000215027
0.000215109
0.000215187
0.000215262
0.000215335
0.000215408
0.000215476
0.000215548
0.000215816
0.000217335
0.000231813
0.000229226
0.00023055
0.000226851
0.000224214
0.000223138
0.000220292
0.0002215
0.000220987
0.000220836
0.000219582
0.000148584
0.000201358
0.000210451
0.000212846
0.000213704
0.000214059
0.00021421
0.000214271
0.000214295
0.000214305
0.00021431
0.000214314
0.000214318
0.000214322
0.000214326
0.00021433
0.000214335
0.00021434
0.000214346
0.000214352
0.000214358
0.000214365
0.000214372
0.000214379
0.000214387
0.000214395
0.000214404
0.000214413
0.000214422
0.000214432
0.000214442
0.000214452
0.000214463
0.000214474
0.000214486
0.000214498
0.000214509
0.000214522
0.000214534
0.000214546
0.000214558
0.000214571
0.000214582
0.000214594
0.000214604
0.000214614
0.000214624
0.000214632
0.00021464
0.000214647
0.000214652
0.000214657
0.00021466
0.000214662
0.000214663
0.000214662
0.00021466
0.000214656
0.000214649
0.000214641
0.000214631
0.000214619
0.000214604
0.000214587
0.000214567
0.000214545
0.000214522
0.000214497
0.000214472
0.000214447
0.000214422
0.000214399
0.000214378
0.00021436
0.000214346
0.000214338
0.000214335
0.000214341
0.000214354
0.000214378
0.000214412
0.000214459
0.000214519
0.000214592
0.000214679
0.000214776
0.000214878
0.000214979
0.000215074
0.00021517
0.000215266
0.000215361
0.000215456
0.000215551
0.000215645
0.000215732
0.000215796
0.000215896
0.000216895
0.000225331
0.000227061
0.000228665
0.000225318
0.000224608
0.00022321
0.000221888
0.000221386
0.000220649
0.000220085
0.000218754
0.000148585
0.000201359
0.000210452
0.000212847
0.000213705
0.000214061
0.000214212
0.000214274
0.000214298
0.000214308
0.000214314
0.000214319
0.000214323
0.000214327
0.000214332
0.000214338
0.000214343
0.00021435
0.000214356
0.000214363
0.000214371
0.000214379
0.000214387
0.000214396
0.000214405
0.000214415
0.000214425
0.000214436
0.000214447
0.000214459
0.000214471
0.000214484
0.000214497
0.00021451
0.000214524
0.000214538
0.000214552
0.000214566
0.000214581
0.000214595
0.000214609
0.000214622
0.000214635
0.000214647
0.000214659
0.00021467
0.00021468
0.000214689
0.000214698
0.000214705
0.000214712
0.000214717
0.000214721
0.000214723
0.000214724
0.000214723
0.000214721
0.000214716
0.00021471
0.000214701
0.00021469
0.000214677
0.000214661
0.000214643
0.000214622
0.000214599
0.000214573
0.000214544
0.000214515
0.000214485
0.000214457
0.00021443
0.000214405
0.000214385
0.000214369
0.00021436
0.000214358
0.000214365
0.000214382
0.000214411
0.000214453
0.00021451
0.000214583
0.000214672
0.000214775
0.000214885
0.000214993
0.000215095
0.000215199
0.000215303
0.000215407
0.000215512
0.000215615
0.000215717
0.000215817
0.000215906
0.000215957
0.000215981
0.000216762
0.000223659
0.000224411
0.000226676
0.000222801
0.000224016
0.000222059
0.000221711
0.000221012
0.000220312
0.000219696
0.000218667
0.000148585
0.00020136
0.000210453
0.000212848
0.000213706
0.000214062
0.000214213
0.000214275
0.0002143
0.000214311
0.000214317
0.000214321
0.000214326
0.000214331
0.000214336
0.000214342
0.000214348
0.000214355
0.000214362
0.00021437
0.000214378
0.000214386
0.000214395
0.000214405
0.000214415
0.000214426
0.000214437
0.000214448
0.00021446
0.000214473
0.000214486
0.0002145
0.000214514
0.000214528
0.000214543
0.000214558
0.000214574
0.000214589
0.000214604
0.000214619
0.000214633
0.000214647
0.00021466
0.000214673
0.000214685
0.000214697
0.000214708
0.000214717
0.000214726
0.000214734
0.000214741
0.000214747
0.000214751
0.000214754
0.000214755
0.000214755
0.000214753
0.000214748
0.000214742
0.000214734
0.000214723
0.00021471
0.000214694
0.000214676
0.000214656
0.000214633
0.000214607
0.000214579
0.000214549
0.000214518
0.000214488
0.00021446
0.000214436
0.000214415
0.0002144
0.000214391
0.000214391
0.000214401
0.000214421
0.000214455
0.000214504
0.000214569
0.00021465
0.000214748
0.000214856
0.000214965
0.000215068
0.000215172
0.000215275
0.000215378
0.000215481
0.000215585
0.000215687
0.000215788
0.000215887
0.000215978
0.000216029
0.000216037
0.000216676
0.000222478
0.000223179
0.000223289
0.000222291
0.000223113
0.000221599
0.000221746
0.000221008
0.000220616
0.000220061
0.000219183
0.000148584
0.000201361
0.000210454
0.000212849
0.000213708
0.000214064
0.000214215
0.000214277
0.000214302
0.000214313
0.000214319
0.000214324
0.000214328
0.000214333
0.000214339
0.000214345
0.000214351
0.000214358
0.000214365
0.000214373
0.000214382
0.00021439
0.0002144
0.00021441
0.00021442
0.000214431
0.000214442
0.000214454
0.000214467
0.00021448
0.000214493
0.000214507
0.000214522
0.000214537
0.000214552
0.000214568
0.000214584
0.000214599
0.000214615
0.00021463
0.000214644
0.000214658
0.000214672
0.000214685
0.000214698
0.00021471
0.000214721
0.000214731
0.00021474
0.000214749
0.000214756
0.000214762
0.000214767
0.00021477
0.000214772
0.000214772
0.00021477
0.000214767
0.000214761
0.000214754
0.000214744
0.000214732
0.000214717
0.0002147
0.000214681
0.000214659
0.000214635
0.000214609
0.000214581
0.000214552
0.000214523
0.000214496
0.000214472
0.000214453
0.00021444
0.000214433
0.000214436
0.000214448
0.000214473
0.000214511
0.000214564
0.000214634
0.00021472
0.000214819
0.000214924
0.000215025
0.000215124
0.000215225
0.000215325
0.000215427
0.000215528
0.00021563
0.000215731
0.000215831
0.00021593
0.000216023
0.000216071
0.000216075
0.000216617
0.000221926
0.000222464
0.000222425
0.000221927
0.000222468
0.000221033
0.000221483
0.000220699
0.000220584
0.000220046
0.000219368
0.000148582
0.000201363
0.000210455
0.000212851
0.00021371
0.000214065
0.000214217
0.000214279
0.000214304
0.000214315
0.000214321
0.000214326
0.00021433
0.000214336
0.000214341
0.000214347
0.000214354
0.000214361
0.000214368
0.000214376
0.000214384
0.000214393
0.000214403
0.000214413
0.000214423
0.000214434
0.000214446
0.000214458
0.000214471
0.000214484
0.000214498
0.000214512
0.000214527
0.000214542
0.000214558
0.000214574
0.00021459
0.000214605
0.000214621
0.000214636
0.000214651
0.000214665
0.000214679
0.000214692
0.000214705
0.000214717
0.000214729
0.000214739
0.000214749
0.000214758
0.000214766
0.000214772
0.000214778
0.000214781
0.000214784
0.000214785
0.000214784
0.000214781
0.000214777
0.00021477
0.000214762
0.000214751
0.000214738
0.000214723
0.000214705
0.000214686
0.000214664
0.000214641
0.000214616
0.00021459
0.000214564
0.000214539
0.000214518
0.000214501
0.00021449
0.000214486
0.000214492
0.000214508
0.000214536
0.000214579
0.000214636
0.000214708
0.000214795
0.000214891
0.000214987
0.000215081
0.000215177
0.000215274
0.000215374
0.000215474
0.000215574
0.000215675
0.000215776
0.000215876
0.000215975
0.000216069
0.000216116
0.000216118
0.000216581
0.000221545
0.000222049
0.000221923
0.00022153
0.000221935
0.00022071
0.000221315
0.00022063
0.000220672
0.00022022
0.000219652
0.000148578
0.000201364
0.000210456
0.000212852
0.000213712
0.000214068
0.000214219
0.000214281
0.000214306
0.000214317
0.000214323
0.000214328
0.000214333
0.000214338
0.000214343
0.00021435
0.000214356
0.000214363
0.00021437
0.000214378
0.000214387
0.000214396
0.000214405
0.000214415
0.000214426
0.000214437
0.000214449
0.000214461
0.000214474
0.000214487
0.000214501
0.000214516
0.000214531
0.000214546
0.000214562
0.000214578
0.000214594
0.00021461
0.000214626
0.000214641
0.000214656
0.000214671
0.000214685
0.000214699
0.000214712
0.000214724
0.000214736
0.000214747
0.000214757
0.000214766
0.000214775
0.000214782
0.000214788
0.000214793
0.000214796
0.000214798
0.000214798
0.000214796
0.000214793
0.000214788
0.00021478
0.000214771
0.00021476
0.000214747
0.000214732
0.000214715
0.000214696
0.000214676
0.000214655
0.000214633
0.000214611
0.00021459
0.000214572
0.000214559
0.000214551
0.000214551
0.000214561
0.000214581
0.000214613
0.000214659
0.000214718
0.000214791
0.000214875
0.000214963
0.000215051
0.000215141
0.000215234
0.00021533
0.000215427
0.000215526
0.000215626
0.000215727
0.000215828
0.000215928
0.000216027
0.000216124
0.000216168
0.000216172
0.000216564
0.000221285
0.000221768
0.000221686
0.000221255
0.000221547
0.000220452
0.000221131
0.000220493
0.000220646
0.000220225
0.000219773
0.000148574
0.000201366
0.000210458
0.000212854
0.000213714
0.00021407
0.000214222
0.000214284
0.000214309
0.00021432
0.000214326
0.000214331
0.000214335
0.000214341
0.000214346
0.000214352
0.000214359
0.000214366
0.000214373
0.000214381
0.00021439
0.000214399
0.000214408
0.000214418
0.000214429
0.00021444
0.000214452
0.000214464
0.000214477
0.000214491
0.000214505
0.000214519
0.000214535
0.00021455
0.000214566
0.000214583
0.000214599
0.000214615
0.000214631
0.000214646
0.000214662
0.000214676
0.000214691
0.000214705
0.000214718
0.000214731
0.000214743
0.000214755
0.000214766
0.000214776
0.000214784
0.000214792
0.000214799
0.000214805
0.000214809
0.000214812
0.000214813
0.000214813
0.000214811
0.000214807
0.000214801
0.000214794
0.000214785
0.000214774
0.000214762
0.000214747
0.000214732
0.000214715
0.000214698
0.000214681
0.000214664
0.000214649
0.000214636
0.000214627
0.000214624
0.000214628
0.000214642
0.000214666
0.000214702
0.00021475
0.000214809
0.00021488
0.000214956
0.000215037
0.000215121
0.000215208
0.000215298
0.000215392
0.000215488
0.000215586
0.000215686
0.000215786
0.000215887
0.000215988
0.000216088
0.000216187
0.00021623
0.000216238
0.000216562
0.000221095
0.000221568
0.000221541
0.000221105
0.000221177
0.000220203
0.000220935
0.000220355
0.000220591
0.000220201
0.000219841
0.000148569
0.000201367
0.00021046
0.000212857
0.000213716
0.000214073
0.000214224
0.000214287
0.000214312
0.000214322
0.000214329
0.000214333
0.000214338
0.000214343
0.000214349
0.000214355
0.000214362
0.000214369
0.000214376
0.000214384
0.000214393
0.000214402
0.000214411
0.000214422
0.000214432
0.000214444
0.000214455
0.000214468
0.000214481
0.000214495
0.000214509
0.000214524
0.000214539
0.000214555
0.000214571
0.000214588
0.000214604
0.00021462
0.000214636
0.000214652
0.000214667
0.000214683
0.000214697
0.000214712
0.000214726
0.000214739
0.000214752
0.000214764
0.000214775
0.000214786
0.000214795
0.000214804
0.000214812
0.000214818
0.000214823
0.000214827
0.00021483
0.000214831
0.00021483
0.000214828
0.000214825
0.00021482
0.000214813
0.000214804
0.000214794
0.000214783
0.000214771
0.000214758
0.000214745
0.000214732
0.00021472
0.000214711
0.000214704
0.000214701
0.000214704
0.000214714
0.000214733
0.00021476
0.000214798
0.000214845
0.000214901
0.000214966
0.000215038
0.000215115
0.000215195
0.00021528
0.000215368
0.000215461
0.000215556
0.000215654
0.000215753
0.000215854
0.000215956
0.000216057
0.000216157
0.00021626
0.000216301
0.000216316
0.000216577
0.000220958
0.00022143
0.000221445
0.00022103
0.000220831
0.000220002
0.000220733
0.000220202
0.000220504
0.000220123
0.000219825
0.000148562
0.000201368
0.000210461
0.000212859
0.000213719
0.000214076
0.000214228
0.00021429
0.000214315
0.000214326
0.000214332
0.000214337
0.000214342
0.000214347
0.000214352
0.000214358
0.000214365
0.000214372
0.00021438
0.000214388
0.000214396
0.000214405
0.000214415
0.000214425
0.000214436
0.000214447
0.000214459
0.000214472
0.000214485
0.000214499
0.000214513
0.000214528
0.000214544
0.00021456
0.000214577
0.000214593
0.00021461
0.000214626
0.000214642
0.000214658
0.000214674
0.00021469
0.000214705
0.000214719
0.000214734
0.000214748
0.000214761
0.000214774
0.000214786
0.000214797
0.000214807
0.000214817
0.000214825
0.000214833
0.000214839
0.000214845
0.000214849
0.000214851
0.000214852
0.000214852
0.000214851
0.000214848
0.000214843
0.000214837
0.00021483
0.000214822
0.000214814
0.000214805
0.000214796
0.000214787
0.000214781
0.000214776
0.000214774
0.000214777
0.000214785
0.000214799
0.000214821
0.00021485
0.000214888
0.000214935
0.00021499
0.000215053
0.000215123
0.000215197
0.000215275
0.000215358
0.000215445
0.000215537
0.000215631
0.000215729
0.000215828
0.00021593
0.000216032
0.000216135
0.000216236
0.000216343
0.000216382
0.000216408
0.000216607
0.00022086
0.000221336
0.000221386
0.000220984
0.000220515
0.000219872
0.000220518
0.000220049
0.000220388
0.000220002
0.000219694
0.000148554
0.00020137
0.000210463
0.000212861
0.000213722
0.000214079
0.000214231
0.000214293
0.000214318
0.000214329
0.000214335
0.00021434
0.000214345
0.00021435
0.000214356
0.000214362
0.000214369
0.000214376
0.000214383
0.000214391
0.0002144
0.000214409
0.000214419
0.000214429
0.00021444
0.000214452
0.000214464
0.000214476
0.00021449
0.000214504
0.000214518
0.000214534
0.000214549
0.000214566
0.000214583
0.000214599
0.000214616
0.000214633
0.000214649
0.000214665
0.000214681
0.000214697
0.000214713
0.000214728
0.000214743
0.000214757
0.000214771
0.000214784
0.000214797
0.000214809
0.000214821
0.000214831
0.000214841
0.000214849
0.000214857
0.000214864
0.000214869
0.000214873
0.000214876
0.000214878
0.000214879
0.000214878
0.000214876
0.000214873
0.000214869
0.000214865
0.00021486
0.000214854
0.00021485
0.000214846
0.000214843
0.000214844
0.000214847
0.000214854
0.000214866
0.000214884
0.000214908
0.000214939
0.000214978
0.000215026
0.000215081
0.000215143
0.00021521
0.000215283
0.00021536
0.000215442
0.000215529
0.00021562
0.000215714
0.000215811
0.000215911
0.000216014
0.000216117
0.000216222
0.000216325
0.000216436
0.000216474
0.000216514
0.000216654
0.000220793
0.000221275
0.000221347
0.000220968
0.000220251
0.000219786
0.000220288
0.000219918
0.000220245
0.000219845
0.000219367
0.000148545
0.000201371
0.000210465
0.000212864
0.000213726
0.000214083
0.000214235
0.000214297
0.000214322
0.000214333
0.000214339
0.000214344
0.000214349
0.000214354
0.00021436
0.000214366
0.000214373
0.00021438
0.000214387
0.000214396
0.000214404
0.000214413
0.000214423
0.000214434
0.000214445
0.000214456
0.000214468
0.000214481
0.000214495
0.000214509
0.000214524
0.000214539
0.000214555
0.000214572
0.000214589
0.000214606
0.000214623
0.00021464
0.000214656
0.000214673
0.000214689
0.000214705
0.000214721
0.000214737
0.000214752
0.000214767
0.000214782
0.000214796
0.00021481
0.000214823
0.000214835
0.000214847
0.000214857
0.000214867
0.000214876
0.000214884
0.000214892
0.000214898
0.000214903
0.000214906
0.000214909
0.000214911
0.000214912
0.000214912
0.000214911
0.00021491
0.000214908
0.000214907
0.000214906
0.000214907
0.000214909
0.000214913
0.000214921
0.000214932
0.000214948
0.000214969
0.000214996
0.000215029
0.00021507
0.000215118
0.000215173
0.000215235
0.000215301
0.000215373
0.00021545
0.000215532
0.000215619
0.000215709
0.000215804
0.000215902
0.000216002
0.000216106
0.000216211
0.000216318
0.000216423
0.00021654
0.000216577
0.000216633
0.000216721
0.000220749
0.00022124
0.000221323
0.000220988
0.000220052
0.000219671
0.000220051
0.000219786
0.000220069
0.00021964
0.000218951
0.000148535
0.000201373
0.000210467
0.000212867
0.000213729
0.000214087
0.000214239
0.000214301
0.000214327
0.000214337
0.000214343
0.000214348
0.000214353
0.000214359
0.000214364
0.00021437
0.000214377
0.000214384
0.000214392
0.0002144
0.000214409
0.000214418
0.000214428
0.000214438
0.00021445
0.000214461
0.000214474
0.000214487
0.0002145
0.000214515
0.00021453
0.000214546
0.000214562
0.000214579
0.000214596
0.000214613
0.00021463
0.000214647
0.000214664
0.000214681
0.000214698
0.000214714
0.000214731
0.000214747
0.000214763
0.000214779
0.000214794
0.000214809
0.000214823
0.000214837
0.00021485
0.000214863
0.000214875
0.000214887
0.000214897
0.000214907
0.000214916
0.000214924
0.000214931
0.000214937
0.000214942
0.000214946
0.00021495
0.000214953
0.000214955
0.000214958
0.00021496
0.000214963
0.000214966
0.00021497
0.000214977
0.000214985
0.000214997
0.000215012
0.000215031
0.000215056
0.000215085
0.000215122
0.000215164
0.000215214
0.000215269
0.000215331
0.000215397
0.000215469
0.000215546
0.000215628
0.000215715
0.000215806
0.000215901
0.000215999
0.000216101
0.000216207
0.000216314
0.000216423
0.000216531
0.000216655
0.000216692
0.000216767
0.000216806
0.000220726
0.000221226
0.000221314
0.000221045
0.000219916
0.000219524
0.000219806
0.000219597
0.00021985
0.000219324
0.000218472
0.000148524
0.000201374
0.00021047
0.00021287
0.000213733
0.000214091
0.000214243
0.000214306
0.000214331
0.000214342
0.000214348
0.000214353
0.000214358
0.000214363
0.000214369
0.000214375
0.000214382
0.000214389
0.000214397
0.000214405
0.000214414
0.000214423
0.000214433
0.000214444
0.000214455
0.000214467
0.000214479
0.000214492
0.000214506
0.000214521
0.000214536
0.000214552
0.000214569
0.000214586
0.000214603
0.000214621
0.000214638
0.000214655
0.000214673
0.00021469
0.000214707
0.000214724
0.000214741
0.000214758
0.000214774
0.000214791
0.000214807
0.000214822
0.000214838
0.000214853
0.000214867
0.000214881
0.000214895
0.000214907
0.000214919
0.000214931
0.000214942
0.000214952
0.000214961
0.000214969
0.000214977
0.000214984
0.000214991
0.000214997
0.000215003
0.000215008
0.000215014
0.000215021
0.000215028
0.000215037
0.000215047
0.00021506
0.000215075
0.000215094
0.000215117
0.000215145
0.000215178
0.000215217
0.000215261
0.000215312
0.000215369
0.000215431
0.000215498
0.00021557
0.000215648
0.00021573
0.000215817
0.000215909
0.000216005
0.000216105
0.000216209
0.000216316
0.000216426
0.000216539
0.00021665
0.000216782
0.000216818
0.000216916
0.000216909
0.000220725
0.000221234
0.00022132
0.000221134
0.000219841
0.000219355
0.000219497
0.000219376
0.00021948
0.000219031
0.000218124
0.000148512
0.000201376
0.000210472
0.000212874
0.000213737
0.000214096
0.000214248
0.000214311
0.000214336
0.000214347
0.000214353
0.000214358
0.000214363
0.000214368
0.000214374
0.00021438
0.000214387
0.000214394
0.000214402
0.00021441
0.000214419
0.000214428
0.000214438
0.000214449
0.00021446
0.000214473
0.000214485
0.000214499
0.000214513
0.000214528
0.000214543
0.00021456
0.000214577
0.000214594
0.000214611
0.000214629
0.000214646
0.000214664
0.000214681
0.000214699
0.000214717
0.000214734
0.000214752
0.000214769
0.000214786
0.000214803
0.00021482
0.000214837
0.000214853
0.000214869
0.000214885
0.0002149
0.000214915
0.000214929
0.000214943
0.000214956
0.000214969
0.000214981
0.000214993
0.000215004
0.000215014
0.000215024
0.000215034
0.000215043
0.000215052
0.000215061
0.000215071
0.000215082
0.000215093
0.000215106
0.00021512
0.000215137
0.000215156
0.000215179
0.000215206
0.000215237
0.000215273
0.000215315
0.000215362
0.000215414
0.000215472
0.000215536
0.000215604
0.000215677
0.000215755
0.000215838
0.000215926
0.000216019
0.000216116
0.000216218
0.000216324
0.000216434
0.000216548
0.000216664
0.00021678
0.000216922
0.000216957
0.000217081
0.000217031
0.000220743
0.00022126
0.000221344
0.000221242
0.000219819
0.000219185
0.000219202
0.000219154
0.000219138
0.000218747
0.000217842
0.000148498
0.000201377
0.000210475
0.000212877
0.000213742
0.000214101
0.000214253
0.000214316
0.000214341
0.000214352
0.000214358
0.000214363
0.000214368
0.000214373
0.000214379
0.000214385
0.000214392
0.000214399
0.000214407
0.000214415
0.000214424
0.000214434
0.000214444
0.000214455
0.000214467
0.000214479
0.000214492
0.000214505
0.00021452
0.000214535
0.000214551
0.000214567
0.000214585
0.000214602
0.00021462
0.000214637
0.000214655
0.000214673
0.000214691
0.000214709
0.000214727
0.000214745
0.000214763
0.000214781
0.000214799
0.000214817
0.000214835
0.000214852
0.00021487
0.000214887
0.000214904
0.00021492
0.000214937
0.000214953
0.000214968
0.000214983
0.000214998
0.000215013
0.000215026
0.00021504
0.000215053
0.000215066
0.000215079
0.000215092
0.000215104
0.000215117
0.000215131
0.000215145
0.000215161
0.000215177
0.000215196
0.000215217
0.000215241
0.000215268
0.000215298
0.000215333
0.000215373
0.000215417
0.000215467
0.000215521
0.000215581
0.000215646
0.000215715
0.00021579
0.000215869
0.000215953
0.000216042
0.000216136
0.000216235
0.000216339
0.000216448
0.000216561
0.000216679
0.0002168
0.000216921
0.000217074
0.00021711
0.000217263
0.000217174
0.000220778
0.000221304
0.000221383
0.000221357
0.000219829
0.000219046
0.00021899
0.00021895
0.000218863
0.000218474
0.000217619
0.000148484
0.000201378
0.000210477
0.000212881
0.000213746
0.000214106
0.000214258
0.000214321
0.000214346
0.000214357
0.000214363
0.000214368
0.000214373
0.000214379
0.000214384
0.000214391
0.000214398
0.000214405
0.000214413
0.000214421
0.00021443
0.00021444
0.00021445
0.000214461
0.000214473
0.000214485
0.000214498
0.000214512
0.000214527
0.000214542
0.000214559
0.000214576
0.000214593
0.000214611
0.000214628
0.000214646
0.000214664
0.000214682
0.000214701
0.000214719
0.000214738
0.000214756
0.000214775
0.000214794
0.000214812
0.000214831
0.00021485
0.000214868
0.000214887
0.000214905
0.000214924
0.000214942
0.00021496
0.000214977
0.000214995
0.000215012
0.000215029
0.000215046
0.000215062
0.000215078
0.000215094
0.00021511
0.000215126
0.000215143
0.000215159
0.000215176
0.000215193
0.000215212
0.000215231
0.000215253
0.000215276
0.000215301
0.000215329
0.00021536
0.000215395
0.000215433
0.000215476
0.000215524
0.000215576
0.000215633
0.000215695
0.000215761
0.000215833
0.000215909
0.000215989
0.000216075
0.000216165
0.000216261
0.000216362
0.000216468
0.00021658
0.000216697
0.000216819
0.000216947
0.000217073
0.000217239
0.000217277
0.000217462
0.00021734
0.000220832
0.000221365
0.000221438
0.000221497
0.00021987
0.000218973
0.000218852
0.000218777
0.000218638
0.000218221
0.000217437
0.000148468
0.00020138
0.00021048
0.000212885
0.000213751
0.000214111
0.000214264
0.000214327
0.000214352
0.000214363
0.000214369
0.000214374
0.000214379
0.000214384
0.00021439
0.000214396
0.000214403
0.000214411
0.000214419
0.000214427
0.000214436
0.000214446
0.000214457
0.000214468
0.00021448
0.000214492
0.000214506
0.00021452
0.000214535
0.00021455
0.000214567
0.000214584
0.000214602
0.000214619
0.000214637
0.000214655
0.000214674
0.000214692
0.000214711
0.00021473
0.000214749
0.000214768
0.000214787
0.000214807
0.000214826
0.000214846
0.000214866
0.000214885
0.000214905
0.000214925
0.000214944
0.000214964
0.000214984
0.000215003
0.000215023
0.000215042
0.000215061
0.00021508
0.0002151
0.000215119
0.000215138
0.000215157
0.000215176
0.000215196
0.000215216
0.000215237
0.000215259
0.000215282
0.000215306
0.000215331
0.000215359
0.000215388
0.000215421
0.000215456
0.000215495
0.000215538
0.000215585
0.000215635
0.000215691
0.000215751
0.000215815
0.000215884
0.000215957
0.000216034
0.000216117
0.000216204
0.000216296
0.000216393
0.000216496
0.000216605
0.00021672
0.000216841
0.000216969
0.000217104
0.000217237
0.000217419
0.000217459
0.00021768
0.000217531
0.000220902
0.000221441
0.000221508
0.000221663
0.000220014
0.00021899
0.000218785
0.000218648
0.00021845
0.000217991
0.000217277
0.000148452
0.000201381
0.000210482
0.000212889
0.000213756
0.000214116
0.000214269
0.000214332
0.000214357
0.000214368
0.000214375
0.00021438
0.000214385
0.00021439
0.000214396
0.000214403
0.000214409
0.000214417
0.000214425
0.000214434
0.000214443
0.000214453
0.000214463
0.000214475
0.000214487
0.000214499
0.000214513
0.000214527
0.000214543
0.000214559
0.000214576
0.000214593
0.000214611
0.000214628
0.000214647
0.000214665
0.000214684
0.000214702
0.000214722
0.000214741
0.00021476
0.00021478
0.0002148
0.00021482
0.000214841
0.000214861
0.000214882
0.000214903
0.000214924
0.000214945
0.000214966
0.000214987
0.000215009
0.00021503
0.000215052
0.000215073
0.000215095
0.000215117
0.000215139
0.000215161
0.000215183
0.000215206
0.000215229
0.000215252
0.000215277
0.000215302
0.000215327
0.000215355
0.000215383
0.000215413
0.000215446
0.00021548
0.000215517
0.000215557
0.000215601
0.000215648
0.000215699
0.000215753
0.000215812
0.000215875
0.000215942
0.000216013
0.000216088
0.000216168
0.000216251
0.00021634
0.000216434
0.000216533
0.000216638
0.000216749
0.000216868
0.000216994
0.000217129
0.000217271
0.000217413
0.000217612
0.000217656
0.000217917
0.000217749
0.00022099
0.000221536
0.000221597
0.000221837
0.000220194
0.000219043
0.000218767
0.000218558
0.000218292
0.000217779
0.000217136
0.000148434
0.000201382
0.000210485
0.000212893
0.000213761
0.000214122
0.000214275
0.000214338
0.000214363
0.000214374
0.000214381
0.000214386
0.000214391
0.000214396
0.000214402
0.000214409
0.000214416
0.000214423
0.000214431
0.00021444
0.00021445
0.00021446
0.00021447
0.000214482
0.000214494
0.000214507
0.000214521
0.000214536
0.000214551
0.000214568
0.000214585
0.000214602
0.00021462
0.000214638
0.000214656
0.000214675
0.000214694
0.000214713
0.000214733
0.000214752
0.000214773
0.000214793
0.000214814
0.000214835
0.000214856
0.000214877
0.000214899
0.000214921
0.000214944
0.000214966
0.000214989
0.000215012
0.000215035
0.000215058
0.000215082
0.000215106
0.00021513
0.000215155
0.00021518
0.000215205
0.000215231
0.000215257
0.000215284
0.000215311
0.00021534
0.000215369
0.000215399
0.000215431
0.000215465
0.0002155
0.000215537
0.000215577
0.000215619
0.000215664
0.000215712
0.000215764
0.000215819
0.000215878
0.00021594
0.000216007
0.000216077
0.00021615
0.000216228
0.000216309
0.000216394
0.000216484
0.000216579
0.00021668
0.000216787
0.000216901
0.000217024
0.000217155
0.000217297
0.000217449
0.0002176
0.00021782
0.00021787
0.000218175
0.000217999
0.000221097
0.000221647
0.000221703
0.000222031
0.000220415
0.000219141
0.000218802
0.000218516
0.000218171
0.000217599
0.000217016
0.000148415
0.000201384
0.000210488
0.000212897
0.000213766
0.000214128
0.000214281
0.000214344
0.00021437
0.000214381
0.000214387
0.000214392
0.000214397
0.000214403
0.000214409
0.000214415
0.000214422
0.00021443
0.000214438
0.000214447
0.000214457
0.000214467
0.000214478
0.000214489
0.000214502
0.000214515
0.000214529
0.000214544
0.00021456
0.000214577
0.000214594
0.000214611
0.000214629
0.000214647
0.000214666
0.000214685
0.000214704
0.000214724
0.000214744
0.000214764
0.000214785
0.000214806
0.000214828
0.000214849
0.000214872
0.000214894
0.000214917
0.00021494
0.000214964
0.000214988
0.000215012
0.000215037
0.000215062
0.000215088
0.000215114
0.00021514
0.000215167
0.000215195
0.000215223
0.000215251
0.00021528
0.00021531
0.000215341
0.000215373
0.000215406
0.00021544
0.000215475
0.000215512
0.00021555
0.000215591
0.000215633
0.000215679
0.000215726
0.000215777
0.00021583
0.000215887
0.000215947
0.00021601
0.000216077
0.000216147
0.00021622
0.000216297
0.000216376
0.00021646
0.000216546
0.000216638
0.000216734
0.000216835
0.000216944
0.000217061
0.000217187
0.000217324
0.000217473
0.000217636
0.000217798
0.000218042
0.000218101
0.000218456
0.000218283
0.000221222
0.000221776
0.000221826
0.000222249
0.000220683
0.000219296
0.000218907
0.000218539
0.000218113
0.000217498
0.000216947
0.000148395
0.000201385
0.000210491
0.000212902
0.000213772
0.000214134
0.000214288
0.000214351
0.000214376
0.000214387
0.000214393
0.000214399
0.000214404
0.000214409
0.000214415
0.000214422
0.000214429
0.000214437
0.000214445
0.000214454
0.000214464
0.000214474
0.000214485
0.000214497
0.00021451
0.000214523
0.000214537
0.000214553
0.000214569
0.000214586
0.000214603
0.000214621
0.000214639
0.000214657
0.000214676
0.000214695
0.000214715
0.000214735
0.000214756
0.000214777
0.000214798
0.00021482
0.000214842
0.000214865
0.000214888
0.000214911
0.000214935
0.00021496
0.000214985
0.000215011
0.000215037
0.000215063
0.00021509
0.000215118
0.000215147
0.000215176
0.000215205
0.000215236
0.000215267
0.000215299
0.000215332
0.000215366
0.000215401
0.000215437
0.000215475
0.000215514
0.000215554
0.000215596
0.00021564
0.000215687
0.000215735
0.000215786
0.00021584
0.000215896
0.000215956
0.000216018
0.000216083
0.000216151
0.000216223
0.000216297
0.000216374
0.000216454
0.000216535
0.00021662
0.000216709
0.0002168
0.000216897
0.000216999
0.000217108
0.000217227
0.000217356
0.000217499
0.000217657
0.000217831
0.000218006
0.000218279
0.00021835
0.000218759
0.000218603
0.000221369
0.000221923
0.000221968
0.000222492
0.000220992
0.000219519
0.000219095
0.000218642
0.000218148
0.000217508
0.000216948
0.000148374
0.000201386
0.000210494
0.000212906
0.000213777
0.00021414
0.000214294
0.000214357
0.000214383
0.000214394
0.0002144
0.000214405
0.00021441
0.000214416
0.000214422
0.000214429
0.000214436
0.000214444
0.000214452
0.000214461
0.000214471
0.000214482
0.000214493
0.000214505
0.000214518
0.000214531