/*--------------------------------*- C++ -*----------------------------------*\
| =========                 |                                                 |
| \\      /  F ield         | OpenFOAM: The Open Source CFD Toolbox           |
|  \\    /   O peration     | Version:  v2106                                 |
|   \\  /    A nd           | Website:  www.openfoam.com                      |
|    \\/     M anipulation  |                                                 |
\*---------------------------------------------------------------------------*/
FoamFile
{
    version     2.0;
    format      ascii;
    arch        "LSB;label=32;scalar=64";
    class       volScalarField;
    location    "0.6";
    object      nut;
}
// * * * * * * * * * * * * * * * * * * * * * * * * * * * * * * * * * * * * * //

dimensions      [0 2 -1 0 0 0 0];

internalField   nonuniform List<scalar> 
29678
(
2.01442e-05
0.000167347
0.000517225
0.000928369
0.00122395
0.00137656
0.00143858
0.00145947
0.0014655
0.00146703
0.00146738
0.00146746
0.00146748
0.00146749
0.0014675
0.00146752
0.00146753
0.00146754
0.00146755
0.00146757
0.00146758
0.0014676
0.00146761
0.00146763
0.00146765
0.00146767
0.00146769
0.00146771
0.00146773
0.00146775
0.00146778
0.0014678
0.00146783
0.00146785
0.00146788
0.00146791
0.00146794
0.00146797
0.00146799
0.00146802
0.00146805
0.00146808
0.00146811
0.00146814
0.00146816
0.00146819
0.00146821
0.00146824
0.00146826
0.00146827
0.00146829
0.0014683
0.00146831
0.00146832
0.00146832
0.00146832
0.00146831
0.0014683
0.00146829
0.00146827
0.00146825
0.00146823
0.0014682
0.00146816
0.00146812
0.00146806
0.001468
0.00146793
0.00146787
0.0014678
0.00146774
0.00146768
0.00146763
0.00146758
0.00146755
0.00146753
0.00146753
0.00146755
0.00146758
0.00146765
0.00146774
0.00146786
0.00146801
0.00146819
0.00146841
0.00146866
0.00146891
0.00146914
0.00146935
0.0014695
0.00139173
0.00123803
0.00111421
0.00100774
0.000909665
0.000827602
0.00081853
0.00103316
0.000797731
1.72374e-05
1.3622e-05
1.38634e-05
1.73421e-05
3.80469e-05
2.43081e-05
0.000130408
0.000116087
6.35832e-05
5.27465e-05
6.12849e-05
2.01437e-05
0.000167348
0.000517235
0.000928389
0.00122397
0.00137657
0.00143859
0.00145947
0.00146551
0.00146704
0.0014674
0.00146748
0.0014675
0.00146751
0.00146753
0.00146754
0.00146755
0.00146757
0.00146759
0.0014676
0.00146762
0.00146764
0.00146766
0.00146769
0.00146771
0.00146774
0.00146776
0.00146779
0.00146782
0.00146785
0.00146788
0.00146791
0.00146794
0.00146798
0.00146801
0.00146804
0.00146808
0.00146812
0.00146815
0.00146819
0.00146823
0.00146826
0.00144782
0.00142072
0.00139574
0.00137299
0.00135246
0.00133415
0.00131811
0.00130438
0.00129302
0.00128412
0.00127778
0.0012741
0.00127324
0.00127538
0.0012807
0.00128947
0.00130196
0.00131854
0.00133962
0.00136574
0.00139759
0.00143571
0.00146831
0.00146824
0.00146816
0.00146808
0.001468
0.00146792
0.00146784
0.00146777
0.00146771
0.00146765
0.00146761
0.00146758
0.00146758
0.00146759
0.00146763
0.00146771
0.00146781
0.00146795
0.00146814
0.00146836
0.00146861
0.00146888
0.00146911
0.00146925
0.00131222
0.00114729
0.00101266
0.000900721
0.000808251
0.000729681
0.000659951
0.000602477
0.00057286
0.000666189
0.000531806
1.29279e-05
8.52764e-06
1.48884e-05
1.30351e-05
1.97704e-05
2.37886e-05
4.98093e-05
6.76459e-05
4.98539e-05
5.11345e-05
5.10358e-05
2.01438e-05
0.000167361
0.000517269
0.000928433
0.001224
0.0013766
0.0014386
0.00145948
0.00146552
0.00146705
0.00146741
0.00146749
0.00146751
0.00146753
0.00146755
0.00146756
0.00146758
0.0014676
0.00146762
0.00146764
0.00146766
0.00146769
0.00146771
0.00146774
0.00146776
0.00146779
0.00146783
0.00146786
0.00146789
0.00146793
0.00146796
0.001468
0.00146804
0.00146808
0.00146812
0.00146816
0.00146821
0.00146825
0.00143336
0.00139858
0.00136603
0.00133573
0.00130765
0.00128174
0.001258
0.00123639
0.0012169
0.00119954
0.00118434
0.00117132
0.00116053
0.00115203
0.00114591
0.00114228
0.00114125
0.00114298
0.00114767
0.00115553
0.00116686
0.00118197
0.00120126
0.00122523
0.00125445
0.00128968
0.00133186
0.00138224
0.00144154
0.00146822
0.00146813
0.00146803
0.00146795
0.00146786
0.00146779
0.00146773
0.00146768
0.00146765
0.00146764
0.00146767
0.00146772
0.00146781
0.00146794
0.00146811
0.00146832
0.00146859
0.00146887
0.00146913
0.00146927
0.00126185
0.00109864
0.000968826
0.000862231
0.000773281
0.000699572
0.000637313
0.000583293
0.000540545
0.000524178
0.000640575
0.000654171
1.44288e-05
1.02966e-05
1.24303e-05
3.6425e-05
1.67737e-05
4.94093e-05
4.33893e-05
6.90807e-05
5.38056e-05
5.47157e-05
5.27318e-05
2.01438e-05
0.000167376
0.000517316
0.000928492
0.00122405
0.00137662
0.00143861
0.00145949
0.00146552
0.00146706
0.00146742
0.0014675
0.00146753
0.00146754
0.00146756
0.00146758
0.00146759
0.00146761
0.00146764
0.00146766
0.00146768
0.00146771
0.00146774
0.00146777
0.0014678
0.00146783
0.00146786
0.0014679
0.00146793
0.00146797
0.00146801
0.00146805
0.0014681
0.00146814
0.00146818
0.00146823
0.0014545
0.00141574
0.0013792
0.00134508
0.00131331
0.0012838
0.00125649
0.00123139
0.00120844
0.00118761
0.00116888
0.00115222
0.00113764
0.00112514
0.00111474
0.00110648
0.00110044
0.00109668
0.00109533
0.00109651
0.0011004
0.0011072
0.00111718
0.00113064
0.00114798
0.00116967
0.00119627
0.0012284
0.00126692
0.00131282
0.00136755
0.00143203
0.00146823
0.00146813
0.00146804
0.00146796
0.00146788
0.00146782
0.00146777
0.00146775
0.00146775
0.00146778
0.00146784
0.00146794
0.00146809
0.00146829
0.00146853
0.00146881
0.0014691
0.00146929
0.00131777
0.00114993
0.0010181
0.00091
0.000819241
0.000741565
0.000675332
0.00061813
0.000567605
0.000524065
0.000500465
0.000566069
0.000563655
1.8823e-05
1.59219e-05
1.8531e-05
3.41964e-05
2.11865e-05
6.23747e-05
3.86637e-05
6.54884e-05
5.16883e-05
5.9948e-05
5.51085e-05
2.01437e-05
0.000167393
0.000517366
0.000928557
0.0012241
0.00137665
0.00143863
0.0014595
0.00146553
0.00146707
0.00146742
0.00146751
0.00146753
0.00146755
0.00146757
0.00146759
0.0014676
0.00146763
0.00146765
0.00146767
0.0014677
0.00146772
0.00146775
0.00146778
0.00146781
0.00146785
0.00146788
0.00146792
0.00146796
0.001468
0.00146804
0.00146808
0.00146812
0.00146817
0.00146822
0.00146826
0.00143091
0.00139253
0.00135665
0.00132332
0.00129235
0.00126368
0.00123721
0.00121283
0.00119049
0.00117015
0.00115179
0.00113541
0.00112099
0.00110854
0.00109808
0.00108967
0.00108334
0.00107918
0.00107727
0.00107776
0.00108077
0.0010865
0.00109518
0.00110706
0.00112249
0.00114186
0.00116563
0.00119434
0.0012287
0.0012696
0.00131806
0.00137559
0.00144263
0.00146824
0.00146815
0.00146806
0.00146799
0.00146793
0.00146789
0.00146787
0.00146788
0.00146792
0.001468
0.00146812
0.00146828
0.00146849
0.00146874
0.00146902
0.00146926
0.00139698
0.00122753
0.00109061
0.000975492
0.000878792
0.000795903
0.000723982
0.000661484
0.00060656
0.000557581
0.000512566
0.000488598
0.000535635
0.000582025
2.36307e-05
2.46861e-05
3.45529e-05
3.32528e-05
2.66459e-05
7.05593e-05
4.15153e-05
7.01687e-05
5.44901e-05
6.61517e-05
5.94479e-05
2.01435e-05
0.00016741
0.000517418
0.000928624
0.00122415
0.00137668
0.00143864
0.00145951
0.00146554
0.00146707
0.00146743
0.00146751
0.00146754
0.00146756
0.00146757
0.00146759
0.00146761
0.00146763
0.00146766
0.00146768
0.00146771
0.00146773
0.00146776
0.00146779
0.00146782
0.00146786
0.00146789
0.00146793
0.00146797
0.00146801
0.00146805
0.00146809
0.00146814
0.00146819
0.00146823
0.00145776
0.00141747
0.0013796
0.00134428
0.0013114
0.0012808
0.00125241
0.00122614
0.00120191
0.00117966
0.00115935
0.00114096
0.00112446
0.00110986
0.00109715
0.00108637
0.00107753
0.0010707
0.00106593
0.00106331
0.00106295
0.00106498
0.00106955
0.00107687
0.00108716
0.0011007
0.00111782
0.00113892
0.00116444
0.00119497
0.00123114
0.00127364
0.00132328
0.00138141
0.00144787
0.00146827
0.00146819
0.00146813
0.00146808
0.00146805
0.00146804
0.00146806
0.00146811
0.00146819
0.00146832
0.0014685
0.00146871
0.00146896
0.0014692
0.00145003
0.00128688
0.00115226
0.00103486
0.000933223
0.000845775
0.000769585
0.000702705
0.00064382
0.000591476
0.000544776
0.000499693
0.000477262
0.000508563
0.000583215
2.8701e-05
3.2679e-05
5.02408e-05
3.72901e-05
3.49055e-05
7.7088e-05
4.63344e-05
7.51949e-05
5.82278e-05
7.15216e-05
6.31358e-05
2.01433e-05
0.000167427
0.000517469
0.000928692
0.0012242
0.00137671
0.00143866
0.00145952
0.00146555
0.00146708
0.00146744
0.00146752
0.00146755
0.00146756
0.00146758
0.0014676
0.00146762
0.00146764
0.00146766
0.00146769
0.00146771
0.00146774
0.00146777
0.0014678
0.00146783
0.00146787
0.0014679
0.00146794
0.00146798
0.00146802
0.00146806
0.00146811
0.00146815
0.0014682
0.00146825
0.00144628
0.00140632
0.00136879
0.00133375
0.00130105
0.00127058
0.00124225
0.00121597
0.00119168
0.00116932
0.00114885
0.00113024
0.00111346
0.00109851
0.0010854
0.00107414
0.00106476
0.00105729
0.00105179
0.00104834
0.00104702
0.00104795
0.00105127
0.00105712
0.00106572
0.00107728
0.00109208
0.00111042
0.00113268
0.00115926
0.00119066
0.00122733
0.00126972
0.00131841
0.00137438
0.00143671
0.00146835
0.00146829
0.00146825
0.00146823
0.00146824
0.00146827
0.00146833
0.00146843
0.00146857
0.00146874
0.00146895
0.00146917
0.00145444
0.00130893
0.00118641
0.00107731
0.000977335
0.000888623
0.000810264
0.000740828
0.000679072
0.000624017
0.000574579
0.00053055
0.000486074
0.000465779
0.00048354
0.000575808
3.38143e-05
4.03263e-05
5.7639e-05
4.2728e-05
4.31938e-05
8.33887e-05
5.24944e-05
8.24426e-05
6.39071e-05
7.93618e-05
6.94608e-05
2.0143e-05
0.000167444
0.000517521
0.00092876
0.00122426
0.00137674
0.00143868
0.00145953
0.00146556
0.00146709
0.00146744
0.00146753
0.00146755
0.00146757
0.00146759
0.00146761
0.00146763
0.00146765
0.00146767
0.0014677
0.00146772
0.00146775
0.00146778
0.00146781
0.00146784
0.00146788
0.00146791
0.00146795
0.00146799
0.00146803
0.00146807
0.00146812
0.00146816
0.00146821
0.00146826
0.00143446
0.00139479
0.00135753
0.00132268
0.00129009
0.00125967
0.00123133
0.00120498
0.00118056
0.00115802
0.00113731
0.0011184
0.00110128
0.00108592
0.00107233
0.00106053
0.00105052
0.00104234
0.00103603
0.00103166
0.0010293
0.00102904
0.001031
0.00103529
0.00104208
0.00105155
0.00106391
0.00107938
0.00109823
0.00112077
0.0011473
0.0011781
0.00121343
0.0012535
0.00129854
0.00134888
0.00140335
0.00145915
0.00146846
0.00146845
0.00146847
0.00146851
0.00146859
0.00146869
0.00146883
0.001469
0.00146917
0.00141231
0.00129227
0.00118879
0.00109593
0.0010061
0.00092174
0.000844564
0.000774715
0.000711713
0.000654888
0.000603593
0.000557081
0.000515777
0.000472151
0.000454175
0.000459862
0.000562494
3.89708e-05
4.83678e-05
5.98191e-05
4.65747e-05
5.25428e-05
9.22708e-05
6.04354e-05
9.15958e-05
7.11026e-05
8.80543e-05
7.64362e-05
2.01426e-05
0.000167461
0.000517573
0.000928829
0.00122431
0.00137678
0.0014387
0.00145954
0.00146557
0.0014671
0.00146745
0.00146754
0.00146756
0.00146758
0.0014676
0.00146762
0.00146764
0.00146766
0.00146768
0.00146771
0.00146773
0.00146776
0.00146779
0.00146782
0.00146785
0.00146789
0.00146792
0.00146796
0.001468
0.00146804
0.00146809
0.00146813
0.00146818
0.00146823
0.0014632
0.00142155
0.00138218
0.00134519
0.00131052
0.00127803
0.00124764
0.00121926
0.00119282
0.00116825
0.0011455
0.00112452
0.00110529
0.00108778
0.00107197
0.00105787
0.00104546
0.00103478
0.00102584
0.00101867
0.00101332
0.00100985
0.00100833
0.00100885
0.00101151
0.00101643
0.00102374
0.00103358
0.00104613
0.00106155
0.00108004
0.00110174
0.00112681
0.0011553
0.00118721
0.00122248
0.00126094
0.00130219
0.00134454
0.00138573
0.00142279
0.00145262
0.00146878
0.00146886
0.00146896
0.00146347
0.00141406
0.00133794
0.00125008
0.001167
0.00109132
0.00101618
0.000941511
0.000869785
0.000802491
0.000740274
0.000683167
0.000630916
0.000583157
0.000539433
0.000500754
0.000458033
0.000442377
0.000437408
0.000544679
4.4125e-05
5.59564e-05
6.14941e-05
4.86698e-05
6.30142e-05
0.0001025
6.96888e-05
0.000102222
7.98413e-05
9.86242e-05
8.52132e-05
2.01422e-05
0.000167478
0.000517625
0.000928898
0.00122437
0.00137681
0.00143872
0.00145956
0.00146558
0.00146711
0.00146746
0.00146755
0.00146757
0.00146759
0.00146761
0.00146763
0.00146765
0.00146767
0.00146769
0.00146772
0.00146774
0.00146777
0.0014678
0.00146783
0.00146786
0.0014679
0.00146794
0.00146797
0.00146801
0.00146806
0.0014681
0.00146815
0.00146819
0.00146824
0.00144876
0.00140742
0.00136839
0.00133169
0.00129721
0.00126483
0.00123447
0.00120605
0.0011795
0.00115477
0.00113179
0.00111053
0.00109095
0.00107303
0.00105674
0.00104209
0.00102906
0.00101766
0.00100792
0.000999843
0.000993475
0.000988857
0.000986042
0.000985093
0.000986085
0.000989101
0.000994234
0.00100158
0.00101124
0.00102331
0.0010379
0.00105504
0.00107477
0.00109701
0.00112164
0.0011484
0.00117694
0.00120678
0.00123717
0.00126678
0.00129344
0.00131525
0.00133028
0.00133578
0.00132756
0.0013011
0.00125398
0.00119269
0.00113057
0.00107024
0.001009
0.00094625
0.000883343
0.000821844
0.000762974
0.000707488
0.000655686
0.000607601
0.000563084
0.00052193
0.000485681
0.000443799
0.000430306
0.000416002
0.000522441
4.92542e-05
6.31007e-05
6.10007e-05
4.92937e-05
7.48741e-05
0.000113249
8.00112e-05
0.000115038
9.01246e-05
0.000111245
9.55452e-05
2.01416e-05
0.000167495
0.000517677
0.000928966
0.00122442
0.00137685
0.00143874
0.00145957
0.00146559
0.00146712
0.00146747
0.00146756
0.00146758
0.0014676
0.00146762
0.00146764
0.00146766
0.00146768
0.0014677
0.00146773
0.00146775
0.00146778
0.00146781
0.00146784
0.00146788
0.00146791
0.00146795
0.00146799
0.00146803
0.00146807
0.00146812
0.00146816
0.00146821
0.00146826
0.00143309
0.00139215
0.0013535
0.0013171
0.0012828
0.00125053
0.00122021
0.00119175
0.0011651
0.00114019
0.00111698
0.00109542
0.00107548
0.00105713
0.00104035
0.00102512
0.00101144
0.000999313
0.00098874
0.000979739
0.000972331
0.000966545
0.000962418
0.000959994
0.000959321
0.000960457
0.000963458
0.000968375
0.000975271
0.00098419
0.000995157
0.00100816
0.00102315
0.00104001
0.00105854
0.00107847
0.00109941
0.00112087
0.00114225
0.00116274
0.0011812
0.00119605
0.00120518
0.00120529
0.00119246
0.00116558
0.00112811
0.00108396
0.00103716
0.000988318
0.00093722
0.000884467
0.000831047
0.000778009
0.000726327
0.000676727
0.00062964
0.00058529
0.000543686
0.000504826
0.00047076
0.000429574
0.000418011
0.000395644
0.00049681
5.43113e-05
7.00362e-05
5.94788e-05
4.90427e-05
8.81686e-05
0.000121877
9.22067e-05
0.000129932
0.000101926
0.000126713
0.000107612
2.0141e-05
0.000167512
0.000517728
0.000929035
0.00122448
0.00137688
0.00143876
0.00145959
0.0014656
0.00146713
0.00146749
0.00146757
0.0014676
0.00146761
0.00146763
0.00146765
0.00146767
0.00146769
0.00146772
0.00146774
0.00146777
0.0014678
0.00146783
0.00146786
0.00146789
0.00146793
0.00146796
0.001468
0.00146804
0.00146809
0.00146813
0.00146818
0.00146823
0.00145901
0.00141634
0.00137585
0.00133761
0.0013015
0.00126741
0.00123525
0.00120496
0.00117647
0.00114971
0.00112463
0.00110117
0.00107931
0.001059
0.0010402
0.00102291
0.0010071
0.000992761
0.000979887
0.000968478
0.000958542
0.000950089
0.000943137
0.000937708
0.000933828
0.000931529
0.000930841
0.000931795
0.000934415
0.000938729
0.000944744
0.000952447
0.000961794
0.000972704
0.000985041
0.000998614
0.00101316
0.00102836
0.00104378
0.00105892
0.00107308
0.00108529
0.00109416
0.00109777
0.00109383
0.00108038
0.00105778
0.00102844
0.000994342
0.000957008
0.000916883
0.000874288
0.000829845
0.000784261
0.000738309
0.000692762
0.000648274
0.000605331
0.000564275
0.000525227
0.000488357
0.000456196
0.000415515
0.0004056
0.000376378
0.000468821
5.92464e-05
7.67307e-05
5.73593e-05
4.85597e-05
0.000101459
0.000128439
0.000108754
0.00014396
0.000116022
0.000145808
0.000121662
2.01403e-05
0.000167528
0.000517779
0.000929103
0.00122453
0.00137692
0.00143878
0.0014596
0.00146561
0.00146714
0.0014675
0.00146758
0.00146761
0.00146763
0.00146764
0.00146766
0.00146768
0.00146771
0.00146773
0.00146775
0.00146778
0.00146781
0.00146784
0.00146787
0.00146791
0.00146794
0.00146798
0.00146802
0.00146806
0.0014681
0.00146815
0.0014682
0.00146825
0.00144082
0.00139864
0.00135866
0.00132083
0.00128501
0.00125112
0.00121909
0.00118884
0.00116031
0.00113344
0.00110818
0.00108448
0.00106231
0.00104161
0.00102238
0.00100457
0.000988171
0.000973166
0.000959544
0.000947301
0.000936434
0.000926948
0.000918849
0.000912147
0.000906857
0.000902992
0.000900568
0.000899592
0.000900075
0.000902017
0.000905406
0.000910209
0.000916367
0.000923789
0.000932346
0.00094186
0.000952103
0.000962782
0.000973533
0.000983888
0.000993217
0.00100065
0.001005
0.00100485
0.000998834
0.000986144
0.000967642
0.000944638
0.000917743
0.000887552
0.000854612
0.00081916
0.000781673
0.000742665
0.000702708
0.000662412
0.000622347
0.000583006
0.000544808
0.000507953
0.000472746
0.000442198
0.000401798
0.000393211
0.000358252
0.000439431
6.39989e-05
8.31235e-05
5.49545e-05
4.78334e-05
0.000112899
0.000135777
0.000129437
0.000155033
0.000135636
0.000166732
0.000138787
2.01395e-05
0.000167545
0.000517831
0.000929172
0.00122459
0.00137695
0.0014388
0.00145962
0.00146563
0.00146716
0.00146751
0.0014676
0.00146762
0.00146764
0.00146766
0.00146768
0.0014677
0.00146772
0.00146774
0.00146777
0.0014678
0.00146782
0.00146785
0.00146789
0.00146792
0.00146796
0.001468
0.00146804
0.00146808
0.00146812
0.00146817
0.00146822
0.00146535
0.00142173
0.00138013
0.00134069
0.00130326
0.00126774
0.00123406
0.00120215
0.00117194
0.00114337
0.0011164
0.00109096
0.00106702
0.00104453
0.00102346
0.00100378
0.000985455
0.000968469
0.000952803
0.000938441
0.000925375
0.000913595
0.0009031
0.000893888
0.00088596
0.00087932
0.00087397
0.000869914
0.000867145
0.000865663
0.000865454
0.000866493
0.000868739
0.000872128
0.000876572
0.000881949
0.000888102
0.000894826
0.000901864
0.000908889
0.000915478
0.000921073
0.000924937
0.000926175
0.000923873
0.000917327
0.000906216
0.000891207
0.000873016
0.000851649
0.000827224
0.000800272
0.000770871
0.000739313
0.00070593
0.000671124
0.00063536
0.000599123
0.000562891
0.000527133
0.000492103
0.000458217
0.000428977
0.000388607
0.000380995
0.000341298
0.00040949
6.84982e-05
8.91632e-05
5.24777e-05
4.67548e-05
0.000121495
0.00014607
0.000150923
0.000166992
0.000161814
0.000190077
0.00022811
2.01386e-05
0.000167562
0.000517881
0.00092924
0.00122465
0.00137699
0.00143883
0.00145964
0.00146564
0.00146717
0.00146753
0.00146761
0.00146764
0.00146766
0.00146767
0.00146769
0.00146771
0.00146774
0.00146776
0.00146778
0.00146781
0.00146784
0.00146787
0.0014679
0.00146794
0.00146798
0.00146801
0.00146806
0.0014681
0.00146814
0.00146819
0.00146824
0.00144497
0.00140193
0.00136097
0.00132205
0.00128502
0.0012498
0.00121633
0.00118454
0.00115437
0.00112577
0.00109869
0.00107308
0.0010489
0.0010261
0.00100465
0.000984528
0.000965696
0.000948132
0.000931816
0.00091673
0.00090286
0.000890195
0.000878726
0.000868445
0.000859349
0.000851431
0.000844689
0.000839113
0.000834695
0.000831423
0.000829276
0.000828224
0.000828222
0.000829209
0.000831103
0.000833794
0.000837142
0.00084097
0.000845052
0.000849103
0.000852756
0.000855548
0.000856907
0.000856206
0.000852909
0.000846672
0.000837319
0.00082524
0.000810923
0.000794079
0.000774524
0.000752717
0.000728576
0.000702201
0.00067375
0.000643465
0.000611674
0.000578775
0.000545219
0.000511507
0.000477934
0.000445005
0.000416748
0.00037612
0.000369102
0.000325528
0.000379709
7.26636e-05
9.47364e-05
5.00619e-05
4.53008e-05
0.00012686
0.000158795
0.000171849
0.000184985
0.000191982
0.000220652
0.000288999
2.01377e-05
0.000167579
0.000517932
0.000929308
0.0012247
0.00137703
0.00143885
0.00145966
0.00146566
0.00146719
0.00146754
0.00146763
0.00146765
0.00146767
0.00146769
0.00146771
0.00146773
0.00146775
0.00146778
0.0014678
0.00146783
0.00146786
0.00146789
0.00146792
0.00146796
0.00146799
0.00146803
0.00146808
0.00146812
0.00146817
0.00146821
0.00146806
0.00142391
0.00138158
0.00134128
0.00130286
0.00126622
0.0012313
0.00119804
0.00116637
0.00113625
0.00110762
0.00108043
0.00105465
0.00103023
0.00100713
0.000985312
0.000964753
0.000945422
0.000927293
0.000910344
0.000894555
0.000879909
0.000866393
0.000853992
0.000842696
0.000832495
0.00082338
0.000815341
0.000808364
0.000802436
0.000797541
0.000793655
0.000790746
0.000788771
0.000787673
0.000787378
0.000787793
0.000788796
0.000790235
0.00079192
0.000793611
0.000795009
0.000795753
0.000795432
0.000793633
0.000790054
0.000784527
0.000776922
0.000767394
0.000756342
0.000743478
0.000728213
0.000710966
0.000691543
0.000669846
0.000645862
0.000619669
0.000591451
0.000561513
0.000530264
0.000498222
0.00046572
0.000433348
0.000405722
0.000364506
0.000357673
0.000310942
0.000350656
7.64055e-05
9.97394e-05
4.783e-05
4.40829e-05
0.000130518
0.000174601
0.000192604
0.000208873
0.000228356
0.000265556
0.000377877
2.01367e-05
0.000167595
0.000517982
0.000929376
0.00122476
0.00137707
0.00143888
0.00145967
0.00146568
0.0014672
0.00146756
0.00146764
0.00146767
0.00146769
0.00146771
0.00146773
0.00146775
0.00146777
0.00146779
0.00146782
0.00146785
0.00146788
0.00146791
0.00146794
0.00146798
0.00146801
0.00146805
0.0014681
0.00146814
0.00146819
0.00146824
0.00144586
0.00140239
0.00136081
0.00132115
0.00128323
0.00124698
0.00121235
0.00117929
0.00114775
0.00111767
0.00108901
0.00106173
0.00103578
0.00101112
0.000987726
0.000965552
0.000944571
0.000924755
0.000906079
0.000888519
0.000872054
0.000856665
0.000842336
0.000829052
0.000816798
0.000805561
0.00079533
0.00078609
0.000777825
0.000770522
0.000764161
0.000758718
0.000754163
0.000750456
0.000747547
0.000745373
0.000743855
0.000742894
0.000742361
0.000742105
0.000741934
0.00074162
0.000740902
0.0007395
0.000737159
0.000733712
0.000729087
0.000723166
0.00071594
0.000707822
0.000698561
0.000687214
0.000674149
0.000659123
0.000641823
0.00062206
0.000599732
0.000574864
0.000547628
0.000518366
0.000487619
0.000455771
0.000423505
0.000396115
0.000353928
0.000346844
0.000297534
0.000322814
7.96358e-05
0.000105155
4.55943e-05
4.21515e-05
0.000136338
0.000189988
0.000212798
0.000237775
0.000272598
0.000334008
0.00050888
2.01356e-05
0.000167612
0.000518032
0.000929443
0.00122482
0.00137711
0.0014389
0.00145969
0.0014657
0.00146722
0.00146758
0.00146766
0.00146769
0.00146771
0.00146772
0.00146774
0.00146776
0.00146779
0.00146781
0.00146784
0.00146787
0.0014679
0.00146793
0.00146796
0.001468
0.00146804
0.00146808
0.00146812
0.00146817
0.00146821
0.00146751
0.00142324
0.00138057
0.00133977
0.0013007
0.00126326
0.00122739
0.00119306
0.0011602
0.00112878
0.00109875
0.00107007
0.00104269
0.00101658
0.000991694
0.000968008
0.000945486
0.000924097
0.000903815
0.000884612
0.000866466
0.000849355
0.000833259
0.000818161
0.000804043
0.00079089
0.000778687
0.00076742
0.000757074
0.000747632
0.00073908
0.000731399
0.000724564
0.00071855
0.000713324
0.00070884
0.000705049
0.000701887
0.000699277
0.000697115
0.000695287
0.000693652
0.000692047
0.000690297
0.000688229
0.000685698
0.000682616
0.000678976
0.000674694
0.000669577
0.000664187
0.00065818
0.000650608
0.000641496
0.000630752
0.000617786
0.000602229
0.000583757
0.00056218
0.000537494
0.000509949
0.000480115
0.000448455
0.000415766
0.00038815
0.000344539
0.000336734
0.000285283
0.000296559
8.22391e-05
0.000110854
4.34779e-05
3.97756e-05
0.000135325
0.000199501
0.000228459
0.000268438
0.000326567
0.000439553
0.00073102
2.01344e-05
0.000167628
0.000518081
0.00092951
0.00122487
0.00137714
0.00143893
0.00145972
0.00146571
0.00146724
0.00146759
0.00146768
0.00146771
0.00146772
0.00146774
0.00146776
0.00146778
0.00146781
0.00146783
0.00146786
0.00146788
0.00146792
0.00146795
0.00146798
0.00146802
0.00146806
0.0014681
0.00146814
0.00146819
0.00146824
0.00144391
0.0014004
0.00135859
0.00131852
0.00128003
0.00124306
0.00120757
0.00117352
0.00114087
0.00110957
0.00107958
0.00105087
0.00102341
0.000997139
0.00097204
0.000948078
0.000925221
0.000903441
0.000882711
0.000863005
0.000844301
0.000826577
0.000809812
0.000793989
0.000779089
0.000765097
0.000751997
0.000739774
0.000728413
0.000717898
0.000708214
0.000699345
0.000691266
0.000683961
0.0006774
0.000671546
0.000666362
0.000661801
0.0006578
0.000654289
0.000651186
0.000648396
0.000645813
0.000643334
0.000640869
0.000638352
0.000635753
0.000633104
0.000630384
0.000627263
0.000624333
0.000621411
0.000617572
0.000612342
0.000605931
0.000597455
0.000586328
0.000571934
0.000553781
0.000531625
0.000505589
0.000476273
0.000444256
0.000410493
0.000382076
0.00033647
0.00032741
0.000274175
0.000272154
8.40808e-05
0.00011589
4.14111e-05
3.78655e-05
0.000133329
0.000206113
0.000237941
0.000294439
0.000385922
0.000593357
0.00119368
2.01331e-05
0.000167644
0.00051813
0.000929576
0.00122493
0.00137718
0.00143896
0.00145974
0.00146573
0.00146726
0.00146761
0.0014677
0.00146772
0.00146774
0.00146776
0.00146778
0.0014678
0.00146783
0.00146785
0.00146788
0.00146791
0.00146794
0.00146797
0.001468
0.00146804
0.00146808
0.00146812
0.00146817
0.00146822
0.00146414
0.00142014
0.00137752
0.00133658
0.00129718
0.00125925
0.00122273
0.00118761
0.00115384
0.00112138
0.0010902
0.00106027
0.00103154
0.00100398
0.000977569
0.000952263
0.000928036
0.00090486
0.000882706
0.000861549
0.000841366
0.000822133
0.000803829
0.000786435
0.000769932
0.000754302
0.00073953
0.0007256
0.000712498
0.000700207
0.000688714
0.000678007
0.000668072
0.000658884
0.000650436
0.0006427
0.000635651
0.000629264
0.000623502
0.000618324
0.00061369
0.000609543
0.000605829
0.000602494
0.000599491
0.000596792
0.00059439
0.000592302
0.000590587
0.000589282
0.000588097
0.000587406
0.000587438
0.00058728
0.00058608
0.000584179
0.00058056
0.000574342
0.000564534
0.00055022
0.000530793
0.000506163
0.00047694
0.000443874
0.000408162
0.000378169
0.000329815
0.00031881
0.00026419
0.000249673
8.50462e-05
0.000120271
3.93381e-05
3.59047e-05
0.000130368
0.000208174
0.000236885
0.000304006
0.000420798
0.000703593
0.00145894
2.01318e-05
0.00016766
0.000518178
0.000929641
0.00122499
0.00137722
0.00143898
0.00145976
0.00146575
0.00146728
0.00146763
0.00146771
0.00146774
0.00146776
0.00146778
0.0014678
0.00146782
0.00146785
0.00146787
0.0014679
0.00146793
0.00146796
0.00146799
0.00146803
0.00146806
0.0014681
0.00146815
0.00146819
0.00146824
0.00143958
0.00139641
0.00135474
0.00131459
0.00127584
0.00123845
0.00120238
0.00116761
0.00113411
0.00110185
0.00107079
0.0010409
0.00101215
0.000984514
0.000957959
0.000932456
0.000907978
0.000884497
0.000861989
0.000840429
0.000819793
0.000800062
0.000781213
0.000763229
0.00074609
0.000729782
0.000714286
0.000699592
0.000685681
0.000672542
0.000660163
0.000648532
0.000637637
0.000627463
0.000617997
0.000609225
0.000601133
0.000593699
0.000586902
0.000580723
0.000575139
0.000570124
0.000565657
0.000561724
0.000558324
0.000555477
0.00055322
0.000551611
0.000550733
0.000550682
0.000551261
0.000552661
0.000555489
0.000559018
0.000562006
0.000564929
0.000566749
0.000566245
0.000561957
0.000552354
0.000536217
0.000513042
0.000483404
0.000448326
0.000409408
0.000376721
0.000324606
0.000310729
0.000255165
0.000229176
8.5068e-05
0.00012382
3.72114e-05
3.3951e-05
0.000125918
0.000203925
0.000223744
0.000290225
0.000396039
0.000589723
0.00111837
2.01304e-05
0.000167676
0.000518225
0.000929706
0.00122504
0.00137726
0.00143901
0.00145978
0.00146577
0.0014673
0.00146765
0.00146773
0.00146776
0.00146778
0.0014678
0.00146782
0.00146784
0.00146787
0.00146789
0.00146792
0.00146795
0.00146798
0.00146801
0.00146805
0.00146809
0.00146813
0.00146817
0.00146822
0.00145849
0.00141511
0.00137289
0.00133215
0.00129273
0.0012546
0.00121773
0.00118209
0.00114766
0.00111443
0.00108235
0.0010514
0.00102156
0.000992797
0.000965085
0.000938398
0.000912709
0.000887992
0.000864224
0.00084138
0.000819439
0.000798379
0.000778179
0.00075882
0.000740284
0.000722555
0.000705617
0.000689453
0.000674054
0.000659405
0.000645493
0.000632313
0.000619844
0.000608085
0.00059703
0.000586661
0.000576975
0.000567964
0.000559618
0.000551926
0.000544883
0.000538486
0.000532734
0.000527632
0.0005232
0.00051947
0.000516497
0.00051436
0.000513147
0.000512971
0.000513975
0.000516128
0.000519425
0.000524795
0.000532029
0.00053935
0.000547447
0.00055551
0.000561963
0.000564799
0.000561543
0.000549872
0.000528458
0.00049772
0.000459132
0.000415072
0.000378027
0.000320801
0.000302851
0.000246747
0.000210718
8.41591e-05
0.000126209
3.50805e-05
3.20518e-05
0.000120513
0.000193722
0.000202264
0.000259278
0.000330406
0.000418854
0.000657814
2.01289e-05
0.000167691
0.000518272
0.000929769
0.0012251
0.0013773
0.00143904
0.0014598
0.00146579
0.00146732
0.00146767
0.00146775
0.00146778
0.0014678
0.00146782
0.00146784
0.00146786
0.00146789
0.00146791
0.00146794
0.00146797
0.001468
0.00146804
0.00146807
0.00146811
0.00146816
0.0014682
0.00146825
0.00143342
0.00139093
0.00134972
0.0013098
0.00127108
0.00123354
0.00119717
0.00116195
0.00112785
0.00109487
0.00106297
0.00103213
0.00100234
0.000973563
0.00094578
0.000918969
0.000893104
0.000868163
0.000844124
0.000820965
0.000798666
0.000777206
0.000756568
0.000736733
0.000717684
0.000699406
0.000681886
0.000665108
0.000649061
0.000633737
0.00061912
0.000605208
0.00059199
0.000579458
0.000567612
0.000556442
0.000545946
0.000536124
0.000526977
0.000518501
0.000510705
0.000503603
0.000497208
0.000491551
0.000486675
0.000482638
0.000479522
0.000477433
0.000476494
0.000476845
0.000478676
0.000482147
0.000487074
0.000494727
0.000505423
0.000517188
0.000530745
0.000546043
0.000561237
0.000573798
0.000579843
0.000574996
0.000556176
0.000523322
0.00047871
0.000426306
0.000382303
0.000318223
0.000294764
0.000238408
0.000194248
8.2406e-05
0.000127339
3.30337e-05
3.02384e-05
0.000114673
0.000178465
0.000177275
0.000221826
0.00026254
0.000302662
0.000442167
2.01274e-05
0.000167707
0.000518318
0.000929832
0.00122515
0.00137734
0.00143907
0.00145983
0.00146581
0.00146734
0.00146769
0.00146778
0.0014678
0.00146782
0.00146784
0.00146786
0.00146789
0.00146791
0.00146794
0.00146796
0.00146799
0.00146803
0.00146806
0.0014681
0.00146814
0.00146818
0.00146823
0.00145115
0.00140869
0.0013672
0.00132694
0.00128779
0.00124973
0.00121276
0.00117686
0.00114203
0.00110826
0.00107551
0.00104379
0.00101306