/*--------------------------------*- C++ -*----------------------------------*\
| =========                 |                                                 |
| \\      /  F ield         | OpenFOAM: The Open Source CFD Toolbox           |
|  \\    /   O peration     | Version:  v2106                                 |
|   \\  /    A nd           | Website:  www.openfoam.com                      |
|    \\/     M anipulation  |                                                 |
\*---------------------------------------------------------------------------*/
FoamFile
{
    version     2.0;
    format      ascii;
    arch        "LSB;label=32;scalar=64";
    class       volScalarField;
    location    "0.6";
    object      omega;
}
// * * * * * * * * * * * * * * * * * * * * * * * * * * * * * * * * * * * * * //

dimensions      [0 0 -1 0 0 0 0];

internalField   nonuniform List<scalar> 
29678
(
7.37637
1.20324
0.406885
0.229268
0.174602
0.155502
0.148903
0.146813
0.146225
0.146078
0.146046
0.14604
0.14604
0.146041
0.146042
0.146043
0.146044
0.146046
0.146047
0.146048
0.14605
0.146052
0.146054
0.146056
0.146058
0.14606
0.146062
0.146064
0.146067
0.146069
0.146072
0.146075
0.146077
0.14608
0.146083
0.146086
0.146089
0.146093
0.146096
0.146099
0.146102
0.146105
0.146109
0.146112
0.146115
0.146118
0.14612
0.146123
0.146125
0.146127
0.146129
0.14613
0.146131
0.146132
0.146132
0.146132
0.146131
0.146129
0.146126
0.146123
0.14612
0.146115
0.14611
0.146104
0.146098
0.146093
0.146087
0.146081
0.146075
0.146068
0.146062
0.146056
0.146051
0.146047
0.146043
0.146041
0.146041
0.146043
0.146047
0.146053
0.146063
0.146076
0.146092
0.146113
0.146137
0.146165
0.146198
0.146236
0.146279
0.146326
0.146379
0.146437
0.146499
0.146568
0.146652
0.146862
0.148671
0.163938
0.243809
0.861164
0.770497
0.739854
0.461052
0.277513
0.280532
0.183422
0.186649
0.187384
0.191067
0.179275
7.37621
1.20322
0.406877
0.229264
0.1746
0.155501
0.148903
0.146814
0.146226
0.14608
0.146048
0.146043
0.146043
0.146044
0.146046
0.146047
0.146049
0.146051
0.146053
0.146055
0.146058
0.14606
0.146063
0.146066
0.146069
0.146072
0.146075
0.146079
0.146082
0.146086
0.14609
0.146094
0.146098
0.146102
0.146107
0.146111
0.146116
0.14612
0.146125
0.14613
0.146134
0.146139
0.146143
0.146148
0.146152
0.146157
0.146161
0.146164
0.146168
0.146171
0.146173
0.146175
0.146177
0.146178
0.146178
0.146178
0.146176
0.146174
0.146171
0.146166
0.146161
0.146155
0.146148
0.14614
0.146132
0.146124
0.146116
0.146107
0.146098
0.146089
0.14608
0.146071
0.146063
0.146057
0.146051
0.146048
0.146047
0.146049
0.146054
0.146063
0.146076
0.146094
0.146116
0.146144
0.146178
0.146217
0.146264
0.146319
0.146383
0.146457
0.146541
0.146636
0.14674
0.146854
0.146982
0.147141
0.147624
0.152101
0.184378
0.490256
0.664872
0.609892
0.417386
0.337397
0.265446
0.201368
0.187888
0.185287
0.18124
0.169645
7.37622
1.20314
0.406852
0.229254
0.174596
0.1555
0.148903
0.146815
0.146227
0.146081
0.14605
0.146044
0.146045
0.146046
0.146048
0.14605
0.146052
0.146055
0.146057
0.14606
0.146063
0.146066
0.146069
0.146072
0.146076
0.14608
0.146084
0.146088
0.146092
0.146097
0.146101
0.146106
0.146111
0.146116
0.146121
0.146127
0.146132
0.146138
0.146143
0.146149
0.146155
0.14616
0.146166
0.146171
0.146177
0.146182
0.146187
0.146191
0.146196
0.146199
0.146203
0.146205
0.146207
0.146208
0.146209
0.146208
0.146207
0.146204
0.1462
0.146195
0.146189
0.146182
0.146173
0.146165
0.146155
0.146146
0.146136
0.146126
0.146115
0.146104
0.146093
0.146083
0.146074
0.146066
0.14606
0.146056
0.146056
0.146058
0.146065
0.146076
0.146092
0.146114
0.146142
0.146176
0.146218
0.146266
0.146326
0.146397
0.14648
0.146574
0.146679
0.146795
0.146922
0.147059
0.147207
0.147361
0.147574
0.149426
0.167264
0.363986
0.415788
0.5186
0.242309
0.329317
0.201695
0.203452
0.182007
0.181671
0.176775
0.169054
7.37622
1.20304
0.406817
0.229241
0.17459
0.155498
0.148903
0.146815
0.146228
0.146082
0.14605
0.146045
0.146046
0.146048
0.14605
0.146052
0.146054
0.146057
0.146059
0.146062
0.146065
0.146069
0.146072
0.146076
0.146079
0.146083
0.146088
0.146092
0.146097
0.146102
0.146106
0.146112
0.146117
0.146122
0.146128
0.146134
0.14614
0.146146
0.146152
0.146158
0.146164
0.14617
0.146176
0.146182
0.146188
0.146194
0.146199
0.146204
0.146209
0.146213
0.146217
0.14622
0.146222
0.146223
0.146224
0.146224
0.146222
0.146219
0.146216
0.146211
0.146204
0.146197
0.146188
0.146179
0.14617
0.14616
0.14615
0.146139
0.146127
0.146116
0.146105
0.146095
0.146085
0.146077
0.146072
0.146068
0.146068
0.146072
0.14608
0.146092
0.146111
0.146135
0.146167
0.146205
0.14625
0.146305
0.146372
0.146449
0.146537
0.146635
0.146744
0.146864
0.146993
0.147133
0.147285
0.147443
0.147594
0.148515
0.159195
0.282327
0.310991
0.278409
0.232889
0.275722
0.19088
0.207831
0.181967
0.18524
0.177506
0.171199
7.3762
1.20293
0.406779
0.229226
0.174584
0.155496
0.148902
0.146815
0.146228
0.146083
0.146051
0.146046
0.146047
0.146048
0.14605
0.146053
0.146055
0.146058
0.146061
0.146063
0.146067
0.14607
0.146073
0.146077
0.146081
0.146085
0.14609
0.146094
0.146099
0.146104
0.146109
0.146114
0.14612
0.146125
0.146131
0.146137
0.146143
0.146149
0.146156
0.146162
0.146168
0.146175
0.146181
0.146187
0.146193
0.146199
0.146205
0.14621
0.146215
0.14622
0.146223
0.146227
0.146229
0.146231
0.146232
0.146232
0.146231
0.146228
0.146225
0.14622
0.146214
0.146207
0.146199
0.146191
0.146182
0.146172
0.146162
0.146151
0.14614
0.146129
0.146118
0.146108
0.146099
0.146092
0.146087
0.146084
0.146085
0.14609
0.146099
0.146113
0.146133
0.14616
0.146193
0.146233
0.146281
0.146339
0.146408
0.146487
0.146577
0.146677
0.146788
0.146909
0.147041
0.147183
0.147337
0.147502
0.14763
0.148227
0.156108
0.250292
0.255592
0.226383
0.222181
0.243818
0.181694
0.201719
0.177672
0.183377
0.174854
0.170591
7.37615
1.20281
0.406741
0.229211
0.174578
0.155494
0.148902
0.146816
0.146229
0.146083
0.146052
0.146047
0.146048
0.146049
0.146051
0.146054
0.146056
0.146059
0.146061
0.146064
0.146068
0.146071
0.146075
0.146078
0.146082
0.146086
0.146091
0.146095
0.1461
0.146105
0.14611
0.146116
0.146121
0.146127
0.146133
0.146139
0.146145
0.146152
0.146158
0.146165
0.146171
0.146178
0.146184
0.146191
0.146197
0.146203
0.146209
0.146214
0.146219
0.146224
0.146228
0.146232
0.146235
0.146237
0.146238
0.146238
0.146238
0.146236
0.146233
0.146228
0.146223
0.146216
0.146209
0.146202
0.146193
0.146184
0.146175
0.146164
0.146154
0.146144
0.146134
0.146124
0.146116
0.14611
0.146106
0.146104
0.146106
0.146112
0.146123
0.146139
0.14616
0.146188
0.146222
0.146264
0.146315
0.146376
0.146447
0.146528
0.14662
0.146723
0.146836
0.146961
0.147096
0.147242
0.147399
0.147572
0.147686
0.148087
0.154125
0.230467
0.229866
0.201369
0.20755
0.216826
0.176303
0.194979
0.175419
0.182007
0.174308
0.171315
7.37607
1.2027
0.406703
0.229196
0.174572
0.155492
0.148902
0.146816
0.14623
0.146084
0.146053
0.146048
0.146048
0.14605
0.146052
0.146054
0.146057
0.14606
0.146062
0.146065
0.146069
0.146072
0.146076
0.146079
0.146083
0.146088
0.146092
0.146097
0.146101
0.146106
0.146112
0.146117
0.146123
0.146129
0.146135
0.146141
0.146147
0.146154
0.14616
0.146167
0.146173
0.14618
0.146187
0.146193
0.1462
0.146206
0.146212
0.146218
0.146224
0.146229
0.146233
0.146237
0.14624
0.146243
0.146245
0.146245
0.146245
0.146244
0.146241
0.146238
0.146233
0.146227
0.146221
0.146214
0.146207
0.146198
0.14619
0.14618
0.146171
0.146161
0.146152
0.146144
0.146137
0.146132
0.146129
0.146129
0.146132
0.14614
0.146152
0.146169
0.146192
0.146221
0.146256
0.146301
0.146356
0.146419
0.146493
0.146577
0.146672
0.146778
0.146895
0.147024
0.147164
0.147315
0.147477
0.147659
0.147762
0.14804
0.152721
0.217691
0.214099
0.193628
0.196452
0.201282
0.172478
0.18868
0.172565
0.179143
0.172117
0.170399
7.37597
1.20259
0.406665
0.229181
0.174566
0.15549
0.148902
0.146817
0.14623
0.146085
0.146054
0.146049
0.146049
0.146051
0.146053
0.146055
0.146058
0.146061
0.146063
0.146066
0.14607
0.146073
0.146077
0.14608
0.146084
0.146089
0.146093
0.146098
0.146103
0.146108
0.146113
0.146119
0.146124
0.14613
0.146136
0.146143
0.146149
0.146156
0.146162
0.146169
0.146176
0.146183
0.14619
0.146196
0.146203
0.14621
0.146216
0.146222
0.146228
0.146233
0.146238
0.146243
0.146247
0.14625
0.146252
0.146253
0.146254
0.146253
0.146251
0.146248
0.146245
0.14624
0.146235
0.146229
0.146222
0.146215
0.146207
0.146198
0.14619
0.146182
0.146174
0.146167
0.146161
0.146158
0.146156
0.146158
0.146163
0.146172
0.146186
0.146204
0.146228
0.146259
0.146299
0.146348
0.146405
0.146471
0.146548
0.146635
0.146734
0.146844
0.146966
0.1471
0.147245
0.147401
0.147569
0.147763
0.147859
0.148063
0.151676
0.208513
0.203285
0.190309
0.190771
0.189783
0.168681
0.182681
0.169713
0.176125
0.170061
0.169435
7.37583
1.20247
0.406628
0.229167
0.17456
0.155488
0.148902
0.146818
0.146231
0.146086
0.146055
0.14605
0.14605
0.146052
0.146054
0.146057
0.146059
0.146062
0.146065
0.146068
0.146071
0.146074
0.146078
0.146082
0.146086
0.14609
0.146094
0.146099
0.146104
0.146109
0.146115
0.14612
0.146126
0.146132
0.146138
0.146145
0.146151
0.146158
0.146165
0.146172
0.146179
0.146186
0.146193
0.1462
0.146207
0.146214
0.146221
0.146227
0.146233
0.146239
0.146245
0.14625
0.146254
0.146258
0.14626
0.146262
0.146264
0.146264
0.146263
0.146261
0.146258
0.146254
0.14625
0.146246
0.14624
0.146234
0.146227
0.14622
0.146213
0.146206
0.146199
0.146194
0.14619
0.146188
0.146188
0.146191
0.146198
0.146209
0.146224
0.146244
0.146271
0.146307
0.146351
0.146403
0.146463
0.146532
0.146612
0.146704
0.146807
0.146922
0.147049
0.147188
0.14734
0.147504
0.147679
0.147885
0.147976
0.148145
0.150899
0.201371
0.195991
0.187927
0.188303
0.181003
0.165607
0.17759
0.167
0.173111
0.167765
0.167973
7.37568
1.20236
0.40659
0.229152
0.174555
0.155487
0.148902
0.146818
0.146233
0.146087
0.146056
0.146051
0.146052
0.146053
0.146056
0.146058
0.14606
0.146063
0.146066
0.146069
0.146072
0.146075
0.146079
0.146083
0.146087
0.146091
0.146096
0.146101
0.146106
0.146111
0.146116
0.146122
0.146128
0.146134
0.14614
0.146147
0.146153
0.14616
0.146167
0.146174
0.146182
0.146189
0.146196
0.146204
0.146211
0.146218
0.146225
0.146232
0.146239
0.146246
0.146252
0.146257
0.146262
0.146266
0.14627
0.146273
0.146275
0.146276
0.146276
0.146275
0.146273
0.146271
0.146269
0.146265
0.146261
0.146256
0.14625
0.146245
0.146239
0.146233
0.146229
0.146225
0.146223
0.146222
0.146225
0.14623
0.146238
0.146251
0.146269
0.146293
0.146324
0.146363
0.146411
0.146466
0.146529
0.146603
0.146687
0.146783
0.146891
0.147012
0.147145
0.147291
0.147451
0.147623
0.147806
0.148028
0.148116
0.148281
0.150349
0.195627
0.190767
0.186677
0.187249
0.17432
0.163614
0.17311
0.164497
0.170246
0.165401
0.166006
7.37549
1.20225
0.406554
0.229138
0.174549
0.155485
0.148902
0.146819
0.146234
0.146089
0.146057
0.146052
0.146053
0.146055
0.146057
0.146059
0.146062
0.146064
0.146067
0.14607
0.146074
0.146077
0.146081
0.146085
0.146089
0.146093
0.146098
0.146102
0.146107
0.146113
0.146118
0.146124
0.14613
0.146136
0.146143
0.146149
0.146156
0.146163
0.14617
0.146178
0.146185
0.146193
0.1462
0.146208
0.146216
0.146223
0.146231
0.146238
0.146246
0.146253
0.146259
0.146266
0.146271
0.146276
0.146281
0.146285
0.146288
0.14629
0.146291
0.146291
0.146291
0.14629
0.146289
0.146287
0.146284
0.146281
0.146277
0.146273
0.146269
0.146265
0.146263
0.146261
0.146261
0.146262
0.146267
0.146274
0.146285
0.146301
0.146322
0.14635
0.146385
0.146428
0.146479
0.146538
0.146606
0.146684
0.146773
0.146874
0.146988
0.147115
0.147256
0.14741
0.147578
0.14776
0.147954
0.148195
0.14828
0.148469
0.150011
0.191021
0.186883
0.185893
0.186791
0.169462
0.162533
0.168849
0.162583
0.167477
0.163075
0.162901
7.37528
1.20213
0.406517
0.229124
0.174544
0.155484
0.148903
0.146821
0.146235
0.14609
0.146059
0.146054
0.146055
0.146056
0.146058
0.146061
0.146063
0.146066
0.146069
0.146072
0.146075
0.146079
0.146082
0.146086
0.14609
0.146095
0.146099
0.146104
0.146109
0.146115
0.14612
0.146126
0.146132
0.146138
0.146145
0.146152
0.146159
0.146166
0.146174
0.146181
0.146189
0.146197
0.146205
0.146213
0.146221
0.146229
0.146237
0.146245
0.146253
0.146261
0.146268
0.146275
0.146282
0.146288
0.146293
0.146298
0.146302
0.146305
0.146308
0.14631
0.146311
0.146312
0.146312
0.146312
0.146311
0.146309
0.146307
0.146305
0.146303
0.146302
0.146301
0.146302
0.146304
0.146308
0.146315
0.146325
0.146339
0.146358
0.146383
0.146415
0.146455
0.146501
0.146556
0.14662
0.146693
0.146776
0.146871
0.146978
0.147099
0.147233
0.147382
0.147545
0.147724
0.147918
0.148123
0.148389
0.148471
0.148705
0.149863
0.187359
0.183938
0.185301
0.186708
0.166367
0.161477
0.165013
0.16122
0.164644
0.160904
0.15874
7.37504
1.20202
0.406481
0.22911
0.174539
0.155483
0.148903
0.146822
0.146237
0.146092
0.14606
0.146056
0.146056
0.146058
0.14606
0.146062
0.146065
0.146068
0.14607
0.146074
0.146077
0.14608
0.146084
0.146088
0.146092
0.146097
0.146101
0.146106
0.146111
0.146117
0.146123
0.146128
0.146135
0.146141
0.146148
0.146155
0.146162
0.146169
0.146177
0.146185
0.146193
0.146201
0.14621
0.146218
0.146227
0.146235
0.146244
0.146253
0.146261
0.146269
0.146278
0.146286
0.146293
0.1463
0.146307
0.146313
0.146318
0.146323
0.146327
0.14633
0.146333
0.146336
0.146338
0.14634
0.14634
0.146341
0.146341
0.146342
0.146342
0.146343
0.146345
0.146348
0.146353
0.14636
0.14637
0.146384
0.146402
0.146425
0.146454
0.14649
0.146534
0.146585
0.146645
0.146713
0.146792
0.146881
0.146982
0.147097
0.147224
0.147367
0.147525
0.147699
0.147891
0.148099
0.148318
0.148611
0.148691
0.14899
0.149847
0.184459
0.181675
0.184799
0.187184
0.16451
0.160162
0.16193
0.159836
0.161886
0.15873
0.15477
7.37477
1.20191
0.406445
0.229097
0.174534
0.155482
0.148904
0.146823
0.146238
0.146093
0.146062
0.146057
0.146058
0.14606
0.146062
0.146064
0.146067
0.146069
0.146072
0.146075
0.146079
0.146082
0.146086
0.14609
0.146094
0.146099
0.146103
0.146108
0.146114
0.146119
0.146125
0.146131
0.146137
0.146144
0.146151
0.146158
0.146165
0.146173
0.146181
0.146189
0.146198
0.146206
0.146215
0.146224
0.146233
0.146242
0.146251
0.146261
0.14627
0.146279
0.146288
0.146297
0.146306
0.146314
0.146322
0.146329
0.146336
0.146342
0.146348
0.146353
0.146358
0.146363
0.146367
0.146371
0.146374
0.146377
0.14638
0.146382
0.146386
0.14639
0.146395
0.146401
0.146409
0.14642
0.146433
0.146451
0.146473
0.1465
0.146534
0.146575
0.146623
0.14668
0.146745
0.146819
0.146904
0.147
0.147108
0.14723
0.147366
0.147518
0.147687
0.147874
0.148079
0.148304
0.148539
0.148867
0.148944
0.149325
0.149914
0.182183
0.179933
0.184351
0.188303
0.163502
0.158776
0.159313
0.158306
0.159042
0.156886
0.152888
7.37448
1.2018
0.40641
0.229084
0.17453
0.155481
0.148905
0.146825
0.14624
0.146095
0.146064
0.146059
0.14606
0.146061
0.146064
0.146066
0.146068
0.146071
0.146074
0.146077
0.146081
0.146084
0.146088
0.146092
0.146096
0.146101
0.146106
0.146111
0.146116
0.146122
0.146128
0.146134
0.14614
0.146147
0.146154
0.146161
0.146169
0.146177
0.146185
0.146194
0.146202
0.146211
0.146221
0.14623
0.14624
0.14625
0.14626
0.14627
0.14628
0.14629
0.1463
0.14631
0.146319
0.146329
0.146338
0.146347
0.146355
0.146363
0.146371
0.146378
0.146386
0.146393
0.146399
0.146405
0.146411
0.146417
0.146422
0.146428
0.146435
0.146442
0.14645
0.14646
0.146472
0.146487
0.146505
0.146527
0.146554
0.146586
0.146625
0.146672
0.146725
0.146787
0.146858
0.146939
0.14703
0.147133
0.147249
0.14738
0.147526
0.147688
0.147869
0.14807
0.148292
0.148535
0.14879
0.149158
0.149234
0.149715
0.150059
0.180412
0.178618
0.183966
0.190012
0.163105
0.157497
0.157272
0.156823
0.156809
0.155213
0.151569
7.37416
1.20169
0.406375
0.229071
0.174525
0.15548
0.148906
0.146826
0.146242
0.146097
0.146066
0.146061
0.146062
0.146063
0.146066
0.146068
0.14607
0.146073
0.146076
0.146079
0.146083
0.146086
0.14609
0.146094
0.146099
0.146103
0.146108
0.146113
0.146119
0.146124
0.14613
0.146137
0.146143
0.14615
0.146158
0.146165
0.146173
0.146181
0.14619
0.146199
0.146208
0.146217
0.146227
0.146237
0.146247
0.146258
0.146268
0.146279
0.14629
0.146301
0.146312
0.146323
0.146335
0.146345
0.146356
0.146367
0.146377
0.146387
0.146397
0.146406
0.146416
0.146426
0.146435
0.146444
0.146453
0.146462
0.146471
0.14648
0.14649
0.146501
0.146513
0.146528
0.146544
0.146563
0.146586
0.146613
0.146646
0.146684
0.146729
0.146781
0.146841
0.146909
0.146986
0.147074
0.147173
0.147284
0.147408
0.147548
0.147704
0.147879
0.148074
0.14829
0.148531
0.148796
0.149073
0.14949
0.149565
0.150167
0.150286
0.179055
0.177645
0.183642
0.191804
0.162995
0.156437
0.155836
0.155502
0.155152
0.153744
0.150638
7.37381
1.20158
0.40634
0.229058
0.174521
0.155479
0.148907
0.146828
0.146244
0.146099
0.146068
0.146063
0.146064
0.146065
0.146068
0.14607
0.146073
0.146075
0.146078
0.146082
0.146085
0.146089
0.146092
0.146097
0.146101
0.146106
0.146111
0.146116
0.146121
0.146127
0.146133
0.14614
0.146147
0.146154
0.146161
0.146169
0.146177
0.146186
0.146195
0.146204
0.146213
0.146223
0.146234
0.146244
0.146255
0.146266
0.146278
0.14629
0.146302
0.146314
0.146326
0.146338
0.146351
0.146364
0.146376
0.146388
0.146401
0.146413
0.146425
0.146437
0.14645
0.146462
0.146474
0.146487
0.146499
0.146511
0.146524
0.146538
0.146552
0.146568
0.146585
0.146604
0.146625
0.14665
0.146679
0.146712
0.14675
0.146795
0.146846
0.146905
0.146971
0.147046
0.147131
0.147226
0.147333
0.147452
0.147586
0.147736
0.147904
0.148091
0.148301
0.148535
0.148797
0.149089
0.149392
0.149866
0.149943
0.150688
0.150604
0.178047
0.176862
0.183349
0.194488
0.163036
0.155762
0.154852
0.154417
0.153893
0.152524
0.149956
7.37344
1.20147
0.406307
0.229046
0.174517
0.155479
0.148908
0.14683
0.146246
0.146101
0.14607
0.146065
0.146066
0.146068
0.14607
0.146072
0.146075
0.146078
0.146081
0.146084
0.146087
0.146091
0.146095
0.146099
0.146104
0.146108
0.146113
0.146119
0.146124
0.14613
0.146137
0.146143
0.14615
0.146157
0.146165
0.146173
0.146182
0.146191
0.1462
0.146209
0.146219
0.14623
0.146241
0.146252
0.146264
0.146276
0.146288
0.146301
0.146314
0.146327
0.146341
0.146355
0.146369
0.146383
0.146397
0.146412
0.146426
0.146441
0.146456
0.146471
0.146487
0.146502
0.146518
0.146534
0.14655
0.146567
0.146584
0.146603
0.146622
0.146643
0.146665
0.14669
0.146718
0.146749
0.146784
0.146824
0.146869
0.146921
0.146979
0.147046
0.147119
0.147202
0.147295
0.147398
0.147513
0.147642
0.147785
0.147946
0.148125
0.148326
0.148552
0.148807
0.149093
0.149415
0.149749
0.150291
0.150372
0.151286
0.151025
0.177352
0.176288
0.183118
0.197968
0.163932
0.155563
0.154254
0.153594
0.152914
0.151546
0.14943
7.37304
1.20136
0.406273
0.229034
0.174513
0.155478
0.148909
0.146832
0.146248
0.146103
0.146072
0.146067
0.146068
0.14607
0.146072
0.146074
0.146077
0.14608
0.146083
0.146086
0.14609
0.146093
0.146097
0.146102
0.146106
0.146111
0.146116
0.146122
0.146127
0.146133
0.14614
0.146147
0.146154
0.146161
0.146169
0.146178
0.146186
0.146196
0.146205
0.146215
0.146226
0.146237
0.146248
0.14626
0.146273
0.146286
0.146299
0.146313
0.146327
0.146342
0.146357
0.146372
0.146388
0.146404
0.146421
0.146438
0.146455
0.146472
0.14649
0.146509
0.146528
0.146547
0.146567
0.146587
0.146608
0.146629
0.146652
0.146675
0.1467
0.146727
0.146756
0.146788
0.146822
0.146861
0.146903
0.146951
0.147005
0.147064
0.147131
0.147206
0.147288
0.147379
0.14748
0.147592
0.147716
0.147853
0.148007
0.148178
0.14837
0.148586
0.14883
0.149106
0.14942
0.149776
0.150146
0.15077
0.15086
0.15197
0.151566
0.176954
0.175992
0.183079
0.201382
0.165051
0.155534
0.153884
0.152989
0.152146
0.150771
0.149031
7.37262
1.20125
0.40624
0.229022
0.174509
0.155478
0.14891
0.146834
0.14625
0.146105
0.146075
0.14607
0.14607
0.146072
0.146074
0.146077
0.146079
0.146082
0.146085
0.146089
0.146092
0.146096
0.1461
0.146104
0.146109
0.146114
0.146119
0.146125
0.146131
0.146137
0.146143
0.14615
0.146158
0.146165
0.146174
0.146182
0.146191
0.146201
0.146211
0.146222
0.146233
0.146244
0.146256
0.146269
0.146282
0.146296
0.14631
0.146325
0.146341
0.146357
0.146374
0.146391
0.146409
0.146427
0.146446
0.146465
0.146485
0.146506
0.146527
0.146549
0.146572
0.146596
0.14662
0.146645
0.146671
0.146698
0.146727
0.146757
0.146789
0.146823
0.146859
0.146898
0.146941
0.146988
0.14704
0.147097
0.147159
0.147228
0.147304
0.147388
0.14748
0.147579
0.147689
0.147811
0.147944
0.148091
0.148254
0.148436
0.148641
0.148872
0.149135
0.149435
0.14978
0.150175
0.150585
0.151305
0.151411
0.15275
0.152248
0.176844
0.175934
0.183237
0.205373
0.166484
0.155713
0.153747
0.152598
0.15158
0.150186
0.148749
7.37217
1.20114
0.406208
0.22901
0.174505
0.155478
0.148912
0.146836
0.146252
0.146108
0.146077
0.146072
0.146073
0.146075
0.146077
0.146079
0.146082
0.146085
0.146088
0.146091
0.146095
0.146099
0.146103
0.146107
0.146112
0.146117
0.146122
0.146128
0.146134
0.14614
0.146147
0.146154
0.146162
0.14617
0.146178
0.146187
0.146197
0.146207
0.146217
0.146228
0.14624
0.146252
0.146265
0.146278
0.146293
0.146307
0.146323
0.146339
0.146356
0.146374
0.146392
0.146411
0.146431
0.146452
0.146473
0.146495
0.146518
0.146542
0.146568
0.146594
0.146621
0.14665
0.146679
0.14671
0.146742
0.146776
0.146811
0.146849
0.146888
0.146931
0.146976
0.147025
0.147077
0.147134
0.147196
0.147264
0.147337
0.147416
0.147503
0.147597
0.147699
0.147809
0.147928
0.148059
0.148201
0.148356
0.148529
0.148722
0.148939
0.149185
0.149467
0.149792
0.150171
0.150611
0.151069
0.151901
0.152034
0.153638
0.153098
0.177031
0.176093
0.183602
0.210036
0.16832
0.156157
0.153892
0.152448
0.151239
0.149821
0.148563
7.3717
1.20104
0.406177
0.228999
0.174501
0.155478
0.148913
0.146838
0.146255
0.14611
0.146079
0.146074
0.146075
0.146077
0.146079
0.146082
0.146084
0.146087
0.146091
0.146094
0.146098
0.146101
0.146106
0.14611
0.146115
0.14612
0.146125
0.146131
0.146137
0.146144
0.146151
0.146158
0.146166
0.146174
0.146183
0.146192
0.146202
0.146212
0.146223
0.146235
0.146247
0.14626
0.146274
0.146288
0.146303
0.146319
0.146336
0.146353
0.146372
0.146391
0.146412
0.146433
0.146455
0.146478
0.146503
0.146528
0.146554
0.146582
0.146612
0.146643
0.146675
0.146709
0.146745
0.146782
0.146821
0.146862
0.146906
0.146952
0.147001
0.147053
0.147109
0.147168
0.147233
0.147301
0.147376
0.147455
0.147541
0.147633
0.147732
0.147838
0.147952
0.148073
0.148201
0.148341
0.148491
0.148655
0.148836
0.149038
0.149266
0.149526
0.149827
0.150179
0.150594
0.151085
0.151598
0.152562
0.152736
0.154647
0.154148
0.177535
0.176473
0.18421
0.215438
0.170581
0.156913
0.154378
0.152582
0.151168
0.149709
0.148478
7.3712
1.20093
0.406146
0.228988
0.174498
0.155478
0.148915
0.14684
0.146257
0.146113
0.146082
0.146077
0.146078
0.14608
0.146082
0.146084
0.146087
0.14609
0.146093
0.146097
0.1461
0.146104
0.146109
0.146113
0.146118
0.146123
0.146129
0.146135
0.146141
0.146148
0.146155
0.146162
0.14617
0.146179
0.146188
0.146198
0.146208
0.146219
0.14623
0.146242
0.146255
0.146269
0.146283
0.146299
0.146315
0.146332
0.14635
0.146369
0.146389
0.14641
0.146432
0.146456
0.146481
0.146507
0.146534
0.146563
0.146593
0.146626
0.14666
0.146696
0.146734
0.146774
0.146817
0.146861
0.146909
0.146959
0.147012
0.147068
0.147128
0.147192
0.14726
0.147333
0.147411
0.147494
0.147583
0.147677
0.147778
0.147885
0.147997
0.148117
0.148245
0.148377
0.148515
0.148664
0.148822
0.148993
0.14918
0.149388
0.149624
0.149897
0.150216
0.150594
0.151048
0.151597
0.152174
0.153293
0.153528
0.155793
0.155435
0.178389
0.177094
0.185093
0.221699
0.173293
0.158068
0.155317
0.153083
0.15144
0.149905
0.148548
7.37068
1.20083
0.406116
0.228978
0.174495
0.155478
0.148916
0.146842
0.146259
0.146115
0.146084
0.14608
0.14608
0.146082
0.146084
0.146087
0.14609
0.146093
0.146096
0.146099
0.146103
0.146107
0.146112
0.146116
0.146121
0.146126
0.146132
0.146138
0.146145
0.146151
0.146159
0.146167
0.146175
0.146184
0.146193
0.146203
0.146214
0.146225
0.146237
0.14625
0.146263
0.146278
0.146293
0.146309
0.146327
0.146345
0.146364
0.146385
0.146407
0.14643
0.146454
0.14648
0.146508
0.146537
0.146568
0.146601
0.146635
0.146673
0.146712
0.146754
0.146799
0.146846
0.146896
0.146949
0.147006
0.147066
0.147131
0.147199
0.147272
0.14735
0.147433
0.147521
0.147616
0.147716
0.147822
0.147935
0.148053
0.148178
0.148308
0.148443
0.148586
0.148732
0.14888
0.149037
0.149202
0.149377
0.149567
0.149778
0.150018
0.150299
0.150633
0.151037
0.151532
0.152144
0.152796
0.154096
0.154421
0.157098
0.157004
0.17964
0.17798
0.1863
0.229015
0.176471
0.1597
0.156822
0.154052
0.152162
0.150511
0.148844
7.37013
1.20073
0.406086
0.228967
0.174492
0.155478
0.148918
0.146844
0.146262
0.146118
0.146087
0.146082
0.146083
0.146085
0.146087
0.14609
0.146092
0.146096
0.146099
0.146102
0.146106
0.14611
0.146115
0.146119
0.146124
0.14613
0.146136
0.146142
0.146148
0.146155
0.146163
0.146171
0.146179
0.146189
0.146198
0.146209
0.14622
0.146232
0.146244
0.146258
0.146272
0.146287
0.146303
0.146321
0.146339
0.146359
0.146379
0.146402
0.146425
0.146451
0.146478
0.146506
0.146537
0.146569
0.146604
0.146641
0.146681
0.146723
0.146769
0.146817
0.146869
0.146924
0.146984
0.147047
0.147114
0.147187
0.147264
0.147347
0.147435
0.14753
0.147631
0.147738
0.147853
0.147974
0.148102
0.148236
0.148377
0.148523
0.148674
0.148828
0.148987
0.149149
0.14931
0.149472
0.149642
0.149818
0.150006
0.150215
0.150453
0.150737
0.151082
0.151507
0.152043
0.152724
0.153464
0.154975
0.155428
0.158588
0.158908
0.18135
0.179169
0.187882
0.237543
0.180228
0.162096
0.159078
0.155721
0.153524
0.15167
0.149444
7.36956
1.20063
0.406057
0.228957
0.174489
0.155479
0.14892
0.146847
0.146264
0.14612
0.146089
0.146085
0.146086
0.146087
0.14609
0.146092
0.146095
0.146098
0.146102
0.146105
0.146109
0.146113
0.146118
0.146122
0.146128
0.146133
0.146139
0.146145
0.146152
0.146159
0.146167
0.146175
0.146184
0.146194
0.146204
0.146215
0.146226
0.146238
0.146252
0.146266
0.146281
0.146297
0.146314
0.146332
0.146352
0.146373
0.146395
0.146419
0.146445
0.146473
0.146502
0.146534
0.146568
0.146604
0.146643
0.146684
0.146729
0.146778
0.14683
0.146886
0.146946
0.147011
0.14708
0.147155
0.147235
0.147321
0.147414
0.147514
0.147621
0.147736
0.147858
0.147989
0.148128
0.148275
0.148429
0.148591
0.148759
0.148932
0.149108
0.149286
0.149465
0.149645
0.14982
0.149987
0.15016
0.150333
0.150514
0.150711
0.15094
0.151217
0.151565
0.152007
0.152581
0.153337
0.15418
0.155938
0.156571
0.160307
0.161216
0.183603
0.1807
0.189939
0.247724
0.184423
0.164946
0.161723
0.158012
0.155633
0.153581
0.150473
7.36897
1.20053
0.40603
0.228948
0.174486
0.155479
0.148922
0.146849
0.146267
0.146123
0.146092
0.146087
0.146088
0.14609
0.146093
0.146095
0.146098
0.146101
0.146105
0.146108
0.146112
0.146116
0.146121
0.146126
0.146131
0.146137
0.146143
0.146149
0.146156
0.146164
0.146171
0.14618
0.146189
0.146199
0.146209
0.146221
0.146233
0.146245
0.146259
0.146274
0.14629
0.146307
0.146325
0.146344
0.146365
0.146388
0.146412
0.146438
0.146466
0.146496
0.146528
0.146563
0.1466
0.14664
0.146684
0.146731
0.146781
0.146837
0.146896
0.14696
0.14703
0.147105
0.147186
0.147274
0.147369
0.147472
0.147583
0.147703
0.147832
0.147971
0.14812
0.148279
0.148448
0.148627
0.148816
0.149012
0.149214
0.149421
0.14963
0.149838
0.150042
0.150244
0.150435
0.150609
0.150779
0.150945
0.15111
0.151287
0.151493
0.151752
0.152092
0.152542
0.153148
0.153983
0.15495
0.156998
0.157881
0.162315
0.164012
0.186499
0.182618
0.192489
0.259198
0.189487
0.168861
0.165389
0.161113
0.158449
0.156088
0.152031
7.36836
1.20043
0.406002
0.228939
0.174484
0.15548
0.148923
0.146851
0.146269
0.146125
0.146095
0.14609
0.146091
0.146093
0.146095
0.146098
0.146101
0.146104
0.146107
0.146111
0.146115
0.146119
0.146124
0.146129
0.146134
0.14614
0.146146
0.146153
0.14616
0.146168
0.146176
0.146185
0.146194
0.146204
0.146215
0.146227
0.146239
0.146253
0.146267
0.146283
0.146299
0.146317
0.146336
0.146357
0.146379
0.146403
0.146429
0.146457
0.146487
0.14652
0.146555
0.146593
0.146634
0.146679
0.146727
0.14678
0.146837
0.1469
0.146967
0.147041
0.147121
0.147208
0.147303
0.147406
0.147519
0.147641
0.147773
0.147917
0.148073
0.148242
0.148423
0.148617
0.148824
0.149043
0.149274
0.149514
0.149761
0.150012
0.150263
0.150511
0.15075
0.150977
0.151188
0.151373
0.151536
0.151689
0.151829
0.151971
0.152138
0.152362
0.152678
0.153123
0.153754
0.154671
0.155787
0.158178
0.159405
0.164709
0.167254
0.190151
0.184965
0.195746
0.273657
0.194548
0.172645
0.169118
0.164371
0.161775
0.15926
0.15473
7.36772
1.20034
0.405976
0.22893
0.174482
0.15548
0.148925
0.146854
0.146272
0.146128
0.146097
0.146093
0.146094
0.146096
0.146098
0.146101
0.146104
0.146107
0.14611
0.146114
0.146118
0.146123
0.146127
0.146132
0.146138
0.146144
0.14615
0.146157
0.146164
0.146172
0.14618
0.146189
0.146199
0.14621
0.146221
0.146233
0.146246
0.14626
0.146275
0.146291
0.146309
0.146328
0.146348
0.14637
0.146394
0.146419
0.146447
0.146477
0.14651
0.146545
0.146583
0.146625
0.14667
0.14672
0.146773
0.146832
0.146896
0.146967
0.147044
0.147128
0.14722
0.147321
0.147431
0.147552
0.147685
0.147829
0.147988
0.14816
0.148348
0.148553
0.148773
0.149011
0.149266
0.149536
0.149821
0.150118
0.150423
0.150733
0.151041
0.151341
0.151627
0.151891
0.152129
0.152328
0.152484
0.152617
0.15272
0.152812
0.152919
0.153081
0.153354
0.153777
0.154425
0.155425
0.15672
0.159529
0.161203
0.167647
0.170951
0.194723
0.1879
0.199766
0.288833
0.201211
0.178536
0.174906
0.169009
0.165901
0.162714
0.157746
7.36706
1.20025
0.405951
0.228921
0.174479
0.155481
0.148927
0.146856
0.146274
0.146131
0.1461
0.146095
0.146096
0.146098
0.146101
0.146103
0.146106
0.14611
0.146113
0.146117
0.146121
0.146126
0.14613
0.146136
0.146141
0.146147
0.146154
0.146161
0.146168
0.146176
0.146185
0.146194
0.146204
0.146215
0.146227
0.146239
0.146253
0.146267
0.146283
0.1463
0.146318
0.146338
0.14636
0.146383
0.146408
0.146436
0.146465
0.146498
0.146533
0.146571
0.146613
0.146658
0.146708
0.146762
0.146822
0.146887
0.14696
0.147039
0.147126
0.147222
0.147327
0.147444
0.147572
0.147713
0.147869
0.14804
0.148229
0.148436
0.148663
0.148911
0.149181
0.149473
0.149788
0.150124
0.150479
0.150851
0.151234
0.151622
0.152007
0.152381
0.152733
0.153054
0.153328
0.153547
0.153705
0.153806
0.153861
0.153883
0.153904