/*--------------------------------*- C++ -*----------------------------------*\
| =========                 |                                                 |
| \\      /  F ield         | OpenFOAM: The Open Source CFD Toolbox           |
|  \\    /   O peration     | Version:  v2106                                 |
|   \\  /    A nd           | Website:  www.openfoam.com                      |
|    \\/     M anipulation  |                                                 |
\*---------------------------------------------------------------------------*/
FoamFile
{
    version     2.0;
    format      ascii;
    arch        "LSB;label=32;scalar=64";
    class       volScalarField;
    location    "0.6";
    object      p;
}
// * * * * * * * * * * * * * * * * * * * * * * * * * * * * * * * * * * * * * //

dimensions      [1 -1 -2 0 0 0 0];

internalField   nonuniform List<scalar> 
29678
(
14641.7
14494.6
14347.5
14200.3
14053.2
13906
13758.9
13611.7
13464.6
13317.4
13170.3
13023.1
12876
12728.8
12581.7
12434.5
12287.4
12140.2
11993.1
11846
11698.8
11551.7
11404.5
11257.4
11110.2
10963.1
10816
10668.8
10521.7
10374.5
10227.4
10080.3
9933.11
9785.97
9638.83
9491.69
9344.55
9197.41
9050.27
8903.13
8756
8608.86
8461.72
8314.58
8167.44
8020.31
7873.17
7726.03
7578.89
7431.76
7284.62
7137.48
6990.35
6843.21
6696.07
6548.93
6401.8
6254.66
6107.52
5960.38
5813.24
5666.11
5518.97
5371.83
5224.69
5077.55
4930.41
4783.27
4636.12
4488.98
4341.84
4194.7
4047.56
3900.42
3753.28
3606.13
3458.99
3311.85
3164.71
3017.57
2870.43
2723.29
2576.15
2429.01
2281.88
2134.74
1987.6
1840.47
1693.33
1546.2
1399.06
1251.92
1104.78
957.643
810.503
663.361
516.215
369.08
221.895
74.9906
0.515985
-0.293734
-0.537861
-0.675105
-0.875193
-1.04001
-1.2256
-1.39921
-1.57906
-1.75298
14642.4
14495.2
14348.1
14201
14053.8
13906.7
13759.5
13612.4
13465.2
13318.1
13170.9
13023.8
12876.7
12729.5
12582.4
12435.3
12288.1
12141
11993.8
11846.7
11699.6
11552.5
11405.3
11258.2
11111.1
10963.9
10816.8
10669.7
10522.6
10375.4
10228.3
10081.2
9934.07
9786.95
9639.83
9492.71
9345.6
9198.48
9051.36
8904.25
8757.13
8610.02
8462.9
8315.79
8168.68
8021.57
7874.45
7727.34
7580.23
7433.12
7286.01
7138.9
6991.79
6844.68
6697.57
6550.45
6403.34
6256.23
6109.12
5962
5814.89
5667.77
5520.66
5373.54
5226.42
5079.31
4932.19
4785.06
4637.94
4490.82
4343.7
4196.58
4049.45
3902.33
3755.21
3608.09
3460.96
3313.84
3166.72
3019.6
2872.48
2725.36
2578.24
2431.13
2284.01
2136.9
1989.79
1842.68
1695.57
1548.46
1401.34
1254.22
1107.11
959.989
812.867
665.737
518.598
371.438
224.22
77.1306
1.54768
-0.296136
-0.53265
-0.67127
-0.869806
-1.03632
-1.22213
-1.39656
-1.57706
-1.75202
14643
14495.9
14348.7
14201.6
14054.5
13907.3
13760.2
13613
13465.9
13318.8
13171.6
13024.5
12877.4
12730.2
12583.1
12436
12288.8
12141.7
11994.6
11847.5
11700.4
11553.2
11406.1
11259
11111.9
10964.8
10817.7
10670.6
10523.5
10376.3
10229.2
10082.1
9935.04
9787.94
9640.84
9493.74
9346.64
9199.55
9052.45
8905.36
8758.27
8611.18
8464.09
8317
8169.91
8022.83
7875.74
7728.66
7581.57
7434.48
7287.4
7140.31
6993.23
6846.14
6699.06
6551.97
6404.89
6257.8
6110.71
5963.62
5816.53
5669.44
5522.34
5375.25
5228.16
5081.06
4933.96
4786.86
4639.76
4492.66
4345.55
4198.45
4051.34
3904.24
3757.13
3610.03
3462.93
3315.82
3168.72
3021.62
2874.52
2727.42
2580.33
2433.24
2286.15
2139.06
1991.97
1844.88
1697.79
1550.7
1403.61
1256.52
1109.43
962.337
815.235
668.126
521.012
373.881
226.76
79.6795
2.87636
-0.296105
-0.518615
-0.667979
-0.865018
-1.03292
-1.21869
-1.3937
-1.57487
-1.75136
14643.7
14496.5
14349.4
14202.2
14055.1
13908
13760.8
13613.7
13466.6
13319.4
13172.3
13025.2
12878
12730.9
12583.8
12436.7
12289.6
12142.5
11995.3
11848.2
11701.1
11554
11406.9
11259.8
11112.7
10965.6
10818.5
10671.4
10524.3
10377.3
10230.2
10083.1
9936
9788.92
9641.84
9494.76
9347.69
9200.61
9053.54
8906.47
8759.41
8612.34
8465.28
8318.21
8171.15
8024.09
7877.03
7729.97
7582.91
7435.85
7288.79
7141.73
6994.67
6847.61
6700.55
6553.49
6406.43
6259.37
6112.3
5965.24
5818.17
5671.1
5524.03
5376.96
5229.89
5082.81
4935.74
4788.66
4641.58
4494.49
4347.41
4200.32
4053.23
3906.15
3759.06
3611.97
3464.89
3317.8
3170.72
3023.64
2876.56
2729.48
2582.41
2435.34
2288.27
2141.21
1994.14
1847.08
1700.01
1552.95
1405.89
1258.83
1111.76
964.688
817.609
670.521
523.429
376.308
229.209
82.0651
4.10347
-0.294457
-0.506298
-0.664541
-0.859429
-1.02982
-1.21552
-1.3915
-1.5732
-1.75057
14644.3
14497.2
14350
14202.9
14055.8
13908.6
13761.5
13614.3
13467.2
13320.1
13173
13025.9
12878.7
12731.6
12584.5
12437.4
12290.3
12143.2
11996.1
11849
11701.9
11554.8
11407.7
11260.6
11113.5
10966.5
10819.4
10672.3
10525.2
10378.2
10231.1
10084
9936.96
9789.9
9642.84
9495.78
9348.73
9201.68
9054.63
8907.59
8760.54
8613.5
8466.46
8319.42
8172.38
8025.35
7878.31
7731.28
7584.24
7437.21
7290.18
7143.15
6996.11
6849.08
6702.05
6555.01
6407.98
6260.94
6113.9
5966.86
5819.81
5672.77
5525.72
5378.67
5231.62
5084.57
4937.51
4790.45
4643.39
4496.33
4349.26
4202.19
4055.13
3908.06
3760.99
3613.92
3466.85
3319.78
3172.72
3025.66
2878.6
2731.54
2584.49
2437.44
2290.4
2143.35
1996.31
1849.27
1702.24
1555.2
1408.17
1261.13
1114.09
967.045
819.991
672.924
525.852
378.74
231.665
84.4806
5.31973
-0.292547
-0.497027
-0.66167
-0.854605
-1.02717
-1.21272
-1.3896
-1.57174
-1.74989
14645
14497.8
14350.7
14203.5
14056.4
13909.3
13762.1
13615
13467.9
13320.8
13173.6
13026.5
12879.4
12732.3
12585.2
12438.1
12291
12143.9
11996.8
11849.7
11702.7
11555.6
11408.5
11261.4
11114.4
10967.3
10820.2
10673.2
10526.1
10379.1
10232
10085
9937.92
9790.87
9643.84
9496.8
9349.77
9202.74
9055.72
8908.7
8761.68
8614.66
8467.64
8320.63
8173.62
8026.61
7879.6
7732.59
7585.58
7438.57
7291.57
7144.56
6997.56
6850.55
6703.54
6556.53
6409.52
6262.51
6115.49
5968.48
5821.46
5674.44
5527.41
5380.39
5233.36
5086.32
4939.29
4792.25
4645.21
4498.16
4351.12
4204.07
4057.02
3909.96
3762.91
3615.86
3468.81
3321.76
3174.71
3027.67
2880.63
2733.6
2586.56
2439.54
2292.52
2145.5
1998.48
1851.47
1704.46
1557.45
1410.45
1263.44
1116.43
969.41
822.382
675.338
528.288
381.188
234.132
86.9179
6.54067
-0.290763
-0.490141
-0.659228
-0.850463
-1.02493
-1.21028
-1.38803
-1.5705
-1.74932
14645.6
14498.5
14351.3
14204.2
14057
13909.9
13762.8
13615.7
13468.5
13321.4
13174.3
13027.2
12880.1
12733
12585.9
12438.8
12291.7
12144.6
11997.6
11850.5
11703.4
11556.3
11409.3
11262.2
11115.2
10968.1
10821.1
10674
10527
10380
10232.9
10085.9
9938.87
9791.85
9644.83
9497.82
9350.81
9203.8
9056.8
8909.8
8762.81
8615.81
8468.82
8321.83
8174.85
8027.86
7880.88
7733.9
7586.92
7439.94
7292.96
7145.98
6999
6852.02
6705.04
6558.05
6411.07
6264.08
6117.09
5970.1
5823.11
5676.11
5529.11
5382.1
5235.09
5088.08
4941.07
4794.05
4647.03
4500
4352.97
4205.94
4058.91
3911.87
3764.84
3617.8
3470.77
3323.74
3176.71
3029.68
2882.66
2735.64
2588.63
2441.63
2294.63
2147.63
2000.64
1853.66
1706.68
1559.7
1412.73
1265.75
1118.77
971.785
824.786
677.769
530.744
383.659
236.624
89.3937
7.77881
-0.289141
-0.484996
-0.657284
-0.847076
-1.02313
-1.20825
-1.38678
-1.56947
-1.74888
14646.2
14499.1
14352
14204.8
14057.7
13910.5
13763.4
13616.3
13469.2
13322.1
13175
13027.9
12880.8
12733.7
12586.6
12439.5
12292.4
12145.4
11998.3
11851.2
11704.2
11557.1
11410.1
11263
11116
10968.9
10821.9
10674.9
10527.9
10380.8
10233.8
10086.8
9939.82
9792.82
9645.82
9498.83
9351.84
9204.86
9057.88
8910.91
8763.93
8616.97
8470
8323.04
8176.08
8029.12
7882.16
7735.2
7588.25
7441.3
7294.34
7147.39
7000.44
6853.49
6706.53
6559.58
6412.62
6265.66
6118.69
5971.73
5824.76
5677.78
5530.81
5383.82
5236.84
5089.85
4942.85
4795.85
4648.85
4501.84
4354.83
4207.82
4060.8
3913.78
3766.76
3619.74
3472.72
3325.71
3178.69
3031.69
2884.68
2737.69
2590.7
2443.71
2296.74
2149.77
2002.8
1855.85
1708.9
1561.95
1415.01
1268.07
1121.12
974.171
827.205
680.219
533.223
386.16
239.149
91.9161
9.03906
-0.287793
-0.481108
-0.655768
-0.844335
-1.02172
-1.20657
-1.3858
-1.56864
-1.74855
14646.9
14499.7
14352.6
14205.4
14058.3
13911.2
13764.1
13616.9
13469.8
13322.7
13175.6
13028.5
12881.5
12734.4
12587.3
12440.2
12293.1
12146.1
11999
11852
11704.9
11557.9
11410.8
11263.8
11116.8
10969.8
10822.7
10675.7
10528.7
10381.7
10234.7
10087.7
9940.76
9793.78
9646.81
9499.84
9352.88
9205.91
9058.96
8912.01
8765.06
8618.11
8471.17
8324.24
8177.3
8030.37
7883.44
7736.51
7589.58
7442.66
7295.73
7148.81
7001.88
6854.96
6708.03
6561.1
6414.17
6267.23
6120.3
5973.36
5826.41
5679.46
5532.51
5385.55
5238.58
5091.61
4944.64
4797.66
4650.67
4503.68
4356.69
4209.69
4062.69
3915.69
3768.69
3621.68
3474.68
3327.68
3180.68
3033.69
2886.7
2739.72
2592.75
2445.79
2298.84
2151.89
2004.96
1858.03
1711.11
1564.2
1417.3
1270.39
1123.48
976.569
829.641
682.692
535.731
388.697
241.715
94.4942
10.3281
-0.286973
-0.478053
-0.654626
-0.842168
-1.02066
-1.20523
-1.38507
-1.56797
-1.74833
14647.5
14500.3
14353.2
14206.1
14058.9
13911.8
13764.7
13617.6
13470.5
13323.4
13176.3
13029.2
12882.1
12735
12588
12440.9
12293.8
12146.8
11999.7
11852.7
11705.7
11558.6
11411.6
11264.6
11117.6
10970.6
10823.6
10676.6
10529.6
10382.6
10235.6
10088.7
9941.7
9794.74
9647.79
9500.84
9353.9
9206.96
9060.03
8913.1
8766.18
8619.26
8472.34
8325.43
8178.52
8031.62
7884.71
7737.81
7590.91
7444.02
7297.12
7150.22
7003.33
6856.43
6709.53
6562.63
6415.72
6268.82
6121.9
5974.99
5828.07
5681.14
5534.21
5387.28
5240.34
5093.39
4946.43
4799.47
4652.5
4505.53
4358.55
4211.57
4064.59
3917.6
3770.61
3623.62
3476.63
3329.64
3182.66
3035.69
2888.72
2741.75
2594.8
2447.86
2300.93
2154.01
2007.1
1860.21
1713.32
1566.45
1419.58
1272.72
1125.85
978.979
832.095
685.189
538.272
391.275
244.329
97.1359
11.6501
-0.286428
-0.475835
-0.653773
-0.840528
-1.0199
-1.20421
-1.38456
-1.56747
-1.74819
14648.1
14501
14353.8
14206.7
14059.6
13912.4
13765.3
13618.2
13471.1
13324
13176.9
13029.9
12882.8
12735.7
12588.6
12441.6
12294.5
12147.5
12000.5
11853.4
11706.4
11559.4
11412.4
11265.4
11118.4
10971.4
10824.4
10677.4
10530.5
10383.5
10236.5
10089.6
9942.64
9795.7
9648.77
9501.84
9354.92
9208.01
9061.1
8914.19
8767.3
8620.4
8473.51
8326.63
8179.74
8032.86
7885.99
7739.12
7592.24
7445.38
7298.51
7151.64
7004.77
6857.9
6711.03
6564.16
6417.28
6270.4
6123.52
5976.63
5829.73
5682.83
5535.93
5389.01
5242.09
5095.17
4948.23
4801.29
4654.34
4507.39
4360.42
4213.46
4066.49
3919.51
3772.54
3625.56
3478.58
3331.61
3184.64
3037.67
2890.72
2743.77
2596.84
2449.92
2303.01
2156.11
2009.23
1862.37
1715.52
1568.69
1421.86
1275.04
1128.22
981.401
834.568
687.713
540.847
393.898
246.998
99.8483
13.0097
-0.286169
-0.474164
-0.653301
-0.839394
-1.01939
-1.2035
-1.38424
-1.56712
-1.74811
14648.7
14501.6
14354.4
14207.3
14060.2
13913.1
13765.9
13618.8
13471.7
13324.7
13177.6
13030.5
12883.4
12736.4
12589.3
12442.3
12295.2
12148.2
12001.2
11854.2
11707.1
11560.1
11413.1
11266.2
11119.2
10972.2
10825.2
10678.3
10531.3
10384.4
10237.4
10090.5
9943.57
9796.65
9649.74
9502.83
9355.94
9209.05
9062.16
8915.28
8768.41
8621.54
8474.67
8327.81
8180.96
8034.11
7887.26
7740.42
7593.57
7446.73
7299.89
7153.05
7006.21
6859.37
6712.53
6565.69
6418.84
6271.99
6125.13
5978.27
5831.4
5684.53
5537.64
5390.76
5243.86
5096.95
4950.04
4803.11
4656.18
4509.24
4362.3
4215.35
4068.39
3921.43
3774.46
3627.49
3480.53
3333.57
3186.61
3039.65
2892.71
2745.78
2598.86
2451.96
2305.07
2158.2
2011.35
1864.52
1717.71
1570.91
1424.13
1277.36
1130.6
983.832
837.058
690.263
543.46
396.569
249.726
102.638
14.4112
-0.286221
-0.47303
-0.653231
-0.838649
-1.01903
-1.20314
-1.38405
-1.56694
-1.74805
14649.3
14502.2
14355
14207.9
14060.8
13913.7
13766.6
13619.5
13472.4
13325.3
13178.2
13031.1
12884.1
12737
12590
12442.9
12295.9
12148.9
12001.9
11854.9
11707.9
11560.9
11413.9
11266.9
11119.9
10973
10826
10679.1
10532.2
10385.2
10238.3
10091.4
9944.49
9797.59
9650.7
9503.82
9356.95
9210.08
9063.22
8916.36
8769.51
8622.67
8475.83
8329
8182.17
8035.35
7888.53
7741.71
7594.9
7448.09
7301.28
7154.47
7007.66
6860.85
6714.04
6567.22
6420.4
6273.58
6126.75
5979.92
5833.08
5686.23
5539.37
5392.5
5245.63
5098.75
4951.85
4804.95
4658.03
4511.11
4364.18
4217.24
4070.29
3923.34
3776.39
3629.43
3482.47
3335.52
3188.57
3041.62
2894.69
2747.77
2600.87
2453.98
2307.11
2160.27
2013.45
1866.65
1719.88
1573.13
1426.39
1279.68
1132.97
986.27
839.564
692.84
546.11
399.291
252.519
105.51
15.8586
-0.286576
-0.472401
-0.653492
-0.838181
-1.01918
-1.20287
-1.38395
-1.56702
-1.74793
14649.9
14502.8
14355.6
14208.5
14061.4
13914.3
13767.2
13620.1
13473
13325.9
13178.8
13031.8
12884.7
12737.7
12590.6
12443.6
12296.6
12149.6
12002.6
11855.6
11708.6
11561.6
11414.6
11267.7
11120.7
10973.8
10826.8
10679.9
10533
10386.1
10239.2
10092.3
9945.4
9798.53
9651.66
9504.8
9357.95
9211.1
9064.26
8917.43
8770.61
8623.79
8476.98
8330.18
8183.38
8036.58
7889.79
7743.01
7596.22
7449.44
7302.66
7155.88
7009.1
6862.32
6715.54
6568.76
6421.97
6275.18
6128.38
5981.57
5834.76
5687.94
5541.1
5394.26
5247.41
5100.55
4953.68
4806.79
4659.89
4512.98
4366.07
4219.14
4072.2
3925.26
3778.31
3631.36
3484.41
3337.46
3190.51
3043.58
2896.65
2749.74
2602.85
2455.98
2309.13
2162.31
2015.52
1868.76
1722.02
1575.32
1428.64
1281.98
1135.34
988.711
842.082
695.44
548.797
402.066
255.378
108.47
17.3557
-0.287214
-0.472267
-0.654031
-0.838036
-1.01958
-1.20274
-1.38418
-1.56682
-1.74813
14650.5
14503.4
14356.2
14209.1
14062
13914.9
13767.8
13620.7
13473.6
13326.5
13179.5
13032.4
12885.4
12738.3
12591.3
12444.3
12297.3
12150.3
12003.3
11856.3
11709.3
11562.3
11415.4
11268.4
11121.5
10974.6
10827.6
10680.7
10533.8
10386.9
10240
10093.2
9946.31
9799.45
9652.61
9505.77
9358.94
9212.12
9065.31
8918.5
8771.7
8624.91
8478.13
8331.35
8184.58
8037.81
7891.05
7744.3
7597.54
7450.79
7304.04
7157.3
7010.55
6863.8
6717.05
6570.3
6423.54
6276.78
6130.01
5983.23
5836.45
5689.65
5542.85
5396.03
5249.2
5102.36
4955.51
4808.64
4661.76
4514.87
4367.96
4221.05
4074.12
3927.18
3780.24
3633.29
3486.34
3339.4
3192.45
3045.52
2898.6
2751.7
2604.81
2457.96
2311.13
2164.33
2017.56
1870.83
1724.14
1577.48
1430.86
1284.27
1137.7
991.148
844.608
698.06
551.518
404.892
258.307
111.521
18.9062
-0.288112
-0.47263
-0.654819
-0.838246
-1.02016
-1.20283
-1.38454
-1.56676
-1.74831
14651.1
14504
14356.8
14209.7
14062.6
13915.5
13768.4
13621.3
13474.2
13327.1
13180.1
13033
12886
12738.9
12591.9
12444.9
12297.9
12150.9
12003.9
11857
11710
11563
11416.1
11269.2
11122.2
10975.3
10828.4
10681.5
10534.6
10387.8
10240.9
10094
9947.2
9800.37
9653.54
9506.73
9359.92
9213.13
9066.34
8919.56
8772.79
8626.02
8479.27
8332.52
8185.78
8039.04
7892.31
7745.58
7598.86
7452.14
7305.43
7158.71
7011.99
6865.28
6718.56
6571.84
6425.12
6278.38
6131.65
5984.9
5838.15
5691.38
5544.6
5397.81
5251.01
5104.19
4957.36
4810.51
4663.64
4516.76
4369.87
4222.96
4076.04
3929.11
3782.17
3635.22
3488.27
3341.33
3194.38
3047.45
2900.53
2753.63
2606.75
2459.9
2313.09
2166.31
2019.57
1872.87
1726.22
1579.61
1433.05
1286.53
1140.04
993.576
847.134
700.694
554.27
407.767
261.306
114.666
20.5135
-0.289261
-0.473488
-0.655851
-0.838827
-1.02092
-1.20317
-1.38498
-1.56686
-1.74848
14651.7
14504.5
14357.4
14210.3
14063.1
13916
13768.9
13621.9
13474.8
13327.7
13180.7
13033.6
12886.6
12739.6
12592.6
12445.6
12298.6
12151.6
12004.6
11857.6
11710.7
11563.7
11416.8
11269.9
11123
10976.1
10829.2
10682.3
10535.5
10388.6
10241.7
10094.9
9948.09
9801.28
9654.47
9507.68
9360.9
9214.13
9067.36
8920.61
8773.86
8627.13
8480.4
8333.68
8186.97
8040.26
7893.56
7746.87
7600.17
7453.49
7306.8
7160.12
7013.44
6866.76
6720.07
6573.39
6426.7
6280
6133.29
5986.58
5839.86
5693.12
5546.37
5399.61
5252.83
5106.03
4959.22
4812.39
4665.54
4518.67
4371.79
4224.89
4077.97
3931.04
3784.1
3637.15
3490.2
3343.25
3196.3
3049.36
2902.44
2755.54
2608.66
2461.82
2315.01
2168.25
2021.53
1874.87
1728.26
1581.7
1435.2
1288.75
1142.34
995.982
849.651
703.334
557.045
410.686
264.373
117.907
22.1805
-0.291066
-0.474825
-0.65717
-0.839778
-1.02183
-1.20378
-1.38548
-1.56711
-1.74862
14652.2
14505.1
14358
14210.8
14063.7
13916.6
13769.5
13622.4
13475.4
13328.3
13181.3
13034.2
12887.2
12740.2
12593.2
12446.2
12299.2
12152.2
12005.3
11858.3
11711.4
11564.4
11417.5
11270.6
11123.7
10976.8
10830
10683.1
10536.2
10389.4
10242.6
10095.8
9948.97
9802.17
9655.39
9508.62
9361.86
9215.12
9068.38
8921.65
8774.93
8628.22
8481.52
8334.83
8188.15
8041.47
7894.81
7748.14
7601.48
7454.83
7308.18
7161.53
7014.89
6868.24
6721.59
6574.94
6428.28
6281.62
6134.95
5988.27
5841.57
5694.87
5548.15
5401.41
5254.66
5107.89
4961.1
4814.29
4667.45
4520.6
4373.72
4226.83
4079.92
3932.99
3786.04
3639.09
3492.13
3345.17
3198.21
3051.26
2904.33
2757.41
2610.53
2463.69
2316.89
2170.14
2023.44
1876.81
1730.24
1583.73
1437.29
1290.92
1144.61
998.356
852.147
705.967
559.832
413.639
267.502
121.242
23.9093
-0.292959
-0.476629
-0.658736
-0.841066
-1.02292
-1.20459
-1.38608
-1.56746
-1.74876
14652.8
14505.6
14358.5
14211.4
14064.3
13917.2
13770.1
13623
13475.9
13328.9
13181.8
13034.8
12887.8
12740.8
12593.8
12446.8
12299.8
12152.9
12005.9
11859
11712
11565.1
11418.2
11271.3
11124.4
10977.6
10830.7
10683.9
10537
10390.2
10243.4
10096.6
9949.83
9803.06
9656.3
9509.55
9362.82
9216.09
9069.38
8922.68
8775.99
8629.31
8482.64
8335.98
8189.32
8042.68
7896.04
7749.41
7602.79
7456.17
7309.56
7162.94
7016.33
6869.72
6723.11
6576.49
6429.87
6283.25
6136.61
5989.96
5843.31
5696.63
5549.95
5403.24
5256.51
5109.77
4963
4816.21
4669.39
4522.54
4375.68
4228.79
4081.87
3934.94
3787.99
3641.03
3494.05
3347.08
3200.1
3053.14
2906.19
2759.26
2612.37
2465.52
2318.72
2171.97
2025.29
1878.68
1732.15
1585.7
1439.32
1293.03
1146.82
1000.68
854.607
708.579
562.616
416.613
270.68
124.669
25.701
-0.295345
-0.478902
-0.660622
-0.842677
-1.02423
-1.20559
-1.38679
-1.56787
-1.74892
14653.3
14506.2
14359
14211.9
14064.8
13917.7
13770.6
13623.6
13476.5
13329.5
13182.4
13035.4
12888.4
12741.4
12594.4
12447.4
12300.4
12153.5
12006.5
11859.6
11712.7
11565.8
11418.9
11272
11125.2
10978.3
10831.5
10684.6
10537.8
10391
10244.2
10097.4
9950.68
9803.93
9657.2
9510.47
9363.76
9217.06
9070.37
8923.7
8777.04
8630.38
8483.74
8337.11
8190.49
8043.88
7897.27
7750.68
7604.09
7457.51
7310.93
7164.35
7017.78
6871.2
6724.63
6578.05
6431.47
6284.88
6138.28
5991.67
5845.05
5698.41
5551.76
5405.08
5258.39
5111.67
4964.92
4818.14
4671.34
4524.51
4377.65
4230.77
4083.85
3936.91
3789.95
3642.97
3495.98
3348.98
3201.99
3054.99
2908.02
2761.07
2614.16
2467.29
2320.48
2173.74
2027.07
1880.48
1733.98
1587.58
1441.27
1295.06
1148.95
1002.94
857.011
711.151
565.38
419.59
273.884
128.172
27.5547
-0.29824
-0.48163
-0.662848
-0.844605
-1.02578
-1.20678
-1.38763
-1.56837
-1.74908
14653.9
14506.7
14359.6
14212.5
14065.3
13918.3
13771.2
13624.1
13477
13330
13183
13036
12888.9
12742
12595
12448
12301
12154.1
12007.2
11860.2
11713.3
11566.4
11419.6
11272.7
11125.8
10979
10832.2
10685.4
10538.6
10391.8
10245
10098.3
9951.52
9804.79
9658.08
9511.38
9364.69
9218.01
9071.35
8924.71
8778.07
8631.45
8484.84
8338.24
8191.65
8045.07
7898.5
7751.94
7605.38
7458.84
7312.29
7165.76
7019.22
6872.69
6726.15
6579.61
6433.07
6286.52
6139.96
5993.39
5846.81
5700.21
5553.59
5406.95
5260.28
5113.59
4966.87
4820.11
4673.33
4526.51
4379.66
4232.77
4085.85
3938.9
3791.93
3644.93
3497.91
3350.89
3203.86
3056.83
2909.83
2762.85
2615.9
2469.01
2322.18
2175.43
2028.76
1882.19
1735.72
1589.36
1443.12
1296.99
1150.99
1005.11
859.338
713.661
568.101
422.548
277.092
131.717
29.4678
-0.301637
-0.484799
-0.665423
-0.846845
-1.02756
-1.20815
-1.38861
-1.56896
-1.74928
14654.4
14507.2
14360.1
14213
14065.9
13918.8
13771.7
13624.6
13477.6
13330.5
13183.5
13036.5
12889.5
12742.5
12595.5
12448.6
12301.6
12154.7
12007.8
11860.9
11714
11567.1
11420.2
11273.4
11126.5
10979.7
10832.9
10686.1
10539.3
10392.6
10245.8
10099.1
9952.34
9805.64
9658.95
9512.27
9365.6
9218.96
9072.32
8925.7
8779.09
8632.5
8485.92
8339.35
8192.79
8046.25
7899.71
7753.19
7606.67
7460.16
7313.66
7167.16
7020.66
6874.17
6727.68
6581.18
6434.68
6288.17
6141.66
5995.13
5848.58
5702.02
5555.44
5408.83
5262.2
5115.54
4968.84
4822.11
4675.34
4528.54
4381.69
4234.8
4087.88
3940.92
3793.93
3646.9
3499.86
3352.79
3205.72
3058.66
2911.61
2764.58
2617.6
2470.67
2323.81
2177.03
2030.35
1883.79
1737.34
1591.02
1444.84
1298.8
1152.91
1007.16
861.561
716.082
570.754
425.463
280.286
135.277
31.4354
-0.305546
-0.488403
-0.668346
-0.84939
-1.02956
-1.2097
-1.38971
-1.56962
-1.74949
14654.9
14507.7
14360.6
14213.5
14066.4
13919.3
13772.2
13625.2
13478.1
13331.1
13184.1
13037
12890.1
12743.1
12596.1
12449.1
12302.2
12155.3
12008.4
11861.5
11714.6
11567.7
11420.9
11274
11127.2
10980.4
10833.6
10686.8
10540.1
10393.3
10246.6
10099.9
9953.15
9806.47
9659.8
9513.14
9366.51
9219.88
9073.27
8926.68
8780.1
8633.54
8486.99
8340.45
8193.93
8047.41
7900.91
7754.43
7607.95
7461.48
7315.01
7168.56
7022.1
6875.65
6729.2
6582.75
6436.3
6289.83
6143.36
5996.88
5850.38
5703.86
5557.32
5410.75
5264.15
5117.52
4970.85
4824.14
4677.39
4530.6
4383.76
4236.88
4089.94
3942.97
3795.95
3648.9
3501.81
3354.7
3207.58
3060.46
2913.35
2766.27
2619.23
2472.25
2325.35
2178.54
2031.84
1885.26
1738.83
1592.54
1446.42
1300.46
1154.68
1009.07
863.65
718.384
573.308
428.308
283.446
138.83
33.4494
-0.309974
-0.492446
-0.671608
-0.852223
-1.03176
-1.21139
-1.3909
-1.57032
-1.74972
14655.4
14508.2
14361.1
14214
14066.9
13919.8
13772.7
13625.7
13478.6
13331.6
13184.6
13037.6
12890.6
12743.6
12596.6
12449.7
12302.8
12155.9
12009
11862.1
11715.2
11568.3
11421.5
11274.7
11127.9
10981.1
10834.3
10687.5
10540.8
10394
10247.3
10100.6
9953.95
9807.28
9660.64
9514
9367.39
9220.79
9074.21
8927.64
8781.09
8634.56
8488.04
8341.54
8195.05
8048.57
7902.11
7755.66
7609.22
7462.79
7316.36
7169.95
7023.54
6877.14
6730.73
6584.33
6437.92
6291.5
6145.08
5998.65
5852.19
5705.72
5559.22
5412.69
5266.13
5119.54
4972.9
4826.22
4679.49
4532.71
4385.88
4238.99
4092.05
3945.05
3798.01
3650.91
3503.78
3356.62
3209.44
3062.25
2915.07
2767.92
2620.81
2473.76
2326.79
2179.93
2033.19
1886.6
1740.16
1593.9
1447.82
1301.94
1156.27
1010.81
865.569
720.528
575.727
431.046
286.542
142.343
35.4969
-0.314929
-0.496924
-0.675185
-0.855324
-1.03412
-1.21321
-1.39217
-1.57107
-1.74996
14655.9
14508.7
14361.6
14214.5
14067.4
13920.3
13773.2
13626.2
13479.1
13332.1
13185.1
13038.1
12891.1
12744.1
12597.2
12450.2
12303.3
12156.4
12009.5
11862.6
11715.8
11568.9
11422.1
11275.3
11128.5
10981.7
10834.9
10688.2
10541.5
10394.8
10248.1
10101.4
9954.73
9808.08
9661.46
9514.85
9368.26
9221.68
9075.13
8928.59
8782.07
8635.57
8489.08
8342.61
8196.15
8049.71
7903.29
7756.87
7610.47
7464.09
7317.71
7171.34
7024.97
6878.62
6732.26
6585.91
6439.55
6293.19
6146.81
6000.43
5854.02
5707.6
5561.15
5414.67
5268.15
5121.6
4974.99
4828.34
4681.63
4534.87
4388.04
4241.16
4094.2
3947.18
3800.11
3652.97
3505.79
3358.56
3211.3
3064.03
2916.77
2769.52
2622.31
2475.18
2328.13
2181.2
2034.41
1887.77
1741.32
1595.07
1449.03
1303.22
1157.64
1012.33
867.278
722.474
577.965
433.632
289.528
145.767
37.5585
-0.320415
-0.501849
-0.679033
-0.858672
-1.03659
-1.21515
-1.3935
-1.57184
-1.75021
14656.3
14509.2
14362
14214.9
14067.8
13920.7
13773.7
13626.6
13479.6
13332.6
13185.6
13038.6
12891.6
12744.6
12597.7
12450.8
12303.9
12157
12010.1
11863.2
11716.4
11569.5
11422.7
11275.9
11129.1
10982.3
10835.6
10688.9
10542.2
10395.5
10248.8
10102.1
9955.48
9808.86
9662.26
9515.67
9369.11
9222.56
9076.03
8929.52
8783.03
8636.56
8490.1
8343.66
8197.24
8050.84
7904.45
7758.08
7611.72
7465.37
7319.04
7172.72
7026.4
6880.09
6733.79
6587.49
6441.18
6294.87
6148.55
6002.22
5855.87
5709.5
5563.1
5416.67
5270.21
5123.7
4977.13
4830.51
4683.83
4537.09
4390.27
4243.38
4096.42
3949.38
3802.26
3655.07
3507.82
3360.52
3213.18
3065.81
2918.43
2771.08
2623.75
2476.51
2329.36
2182.34
2035.46
1888.77
1742.28
1596.02
1450
1304.24
1158.76
1013.59
868.731
724.17
579.969
436.005
292.344
149.033
39.606
-0.326391
-0.507149
-0.683075
-0.862233
-1.03906
-1.21721
-1.39485
-1.57264
-1.75049
14656.8
14509.6
14362.5
14215.4
14068.3
13921.2
13774.1
13627.1
13480.1
13333
13186
13039.1
12892.1
12745.1
12598.2
12451.3
12304.4
12157.5
12010.6
11863.7
11716.9
11570.1
11423.3
11276.5
11129.7
10983
10836.2
10689.5
10542.8
10396.1
10249.5
10102.8
9956.22
9809.62
9663.04
9516.48
9369.94
9223.42
9076.91
8930.43
8783.97
8637.53
8491.1
8344.7
8198.32
8051.95
7905.6
7759.27
7612.95
7466.65
7320.36
7174.09
7027.83
6881.57
6735.32
6589.07
6442.82
6296.57
6150.3
6004.03
5857.74
5711.43
5565.09
5418.72
5272.3
5125.84
4979.32
4832.74
4686.09
4539.37
4392.57
4245.68
4098.7
3951.64
3804.48
3657.23
3509.91
3362.52
3215.07
3067.58
2920.08
2772.59
2625.12
2477.74
2330.46
2183.32
2036.34
1889.56
1743.01
1596.72
1450.71
1304.99
1159.59
1014.55
869.876
725.558
581.677
438.093
294.918
152.056
41.6005
-0.332816
-0.512803
-0.687219
-0.865967
-1.04147
-1.21939
-1.39617
-1.57341
-1.75079
14657.2
14510.1
14362.9
14215.8
14068.7
13921.6
13774.6
13627.5
13480.5
13333.5
13186.5
13039.5
12892.6
12745.6
12598.7
12451.8
12304.9
12158
12011.1
11864.3
11717.4
11570.6
11423.8
11277.1
11130.3
10983.6
10836.8
10690.1
10543.5
10396.8
10250.2
10103.5
9956.94
9810.36
9663.8
9517.27
9370.75
9224.25
9077.78
8931.32
8784.89
8638.48
8492.09
8345.72
8199.37
8053.04
7906.73
7760.44
7614.17
7467.91
7321.67
7175.45
7029.24
6883.03
6736.84
6590.65
6444.46
6298.26
6152.06
6005.86
5859.63
5713.39
5567.11
5420.8
5274.45
5128.04
4981.57
4835.03
4688.42
4541.73
4394.95
4248.07
4101.08
3953.98
3806.78
3659.47
3512.06
3364.56
3216.99
3069.36
2921.71
2774.06
2626.42
2478.88
2331.43
2184.14
2037.02
1890.13
1743.49
1597.14
1451.11
1305.41
1160.08
1015.16
870.657
726.565
583.018
439.8
297.183
154.722
43.4894
-0.339529
-0.518639
-0.691338
-0.869672
-1.04381
-1.22146
-1.39754
-1.57424
-1.75101
14657.6
14510.5
14363.4
14216.2
14069.1
13922.1
13775
13628
13481
13333.9
13187
13040
12893
12746.1
12599.2
12452.2
12305.4
12158.5
12011.6
11864.8
11718
11571.2
11424.4
11277.6
11130.9
10984.1
10837.4
10690.8
10544.1
10397.4
10250.8
10104.2
9957.64
9811.08
9664.55
9518.03
9371.54
9225.07
9078.62
8932.19
8785.79
8639.41
8493.05
8346.72
8200.4
8054.11
7907.84
7761.59
7615.37
7469.16
7322.97
7176.8
7030.64
6884.49
6738.35
6592.22
6446.09
6299.97
6153.84
6007.7
5861.55
5715.37
5569.17
5422.92
5276.64
5130.3
4983.89
4837.4
4690.84
4544.18
4397.42
4250.55
4103.55
3956.43
3809.18
3661.8
3514.29
3366.68
3218.96
3071.17
2923.33
2775.48
2627.65
2479.9
2332.26
2184.77
2037.49
1890.45
1743.7
1597.26
1451.17
1305.47
1160.19
1015.35
871.004
727.096
583.927
440.985
299.173
156.822
45.1989
-0.346449
-0.524521
-0.695457
-0.872853
-1.04676
-1.2232
-1.39873
-1.57495
-1.75125
14658
14510.9
14363.8
14216.7
14069.6
13922.5
13775.4
13628.4
13481.4
13334.4
13187.4
13040.4
12893.5
12746.5
12599.6
12452.7
12305.8
12159
12012.1
11865.3
11718.5
11571.7
11424.9
11278.2
11131.4
10984.7
10838
10691.3
10544.7
10398.1
10251.5
10104.9
9958.32
9811.78
9665.27
9518.77
9372.3
9225.86
9079.44
8933.04
8786.66
8640.32
8493.99
8347.69
8201.41
8055.16
7908.93
7762.73
7616.55
7470.39
7324.25
7178.13
7032.02
6885.93
6739.86
6593.79
6447.74
6301.68
6155.62
6009.55
5863.47
5717.38
5571.25
5425.09
5278.88
5132.62
4986.27
4839.85
4693.34
4546.73
4400.01
4253.15
4106.15
3959.01
3811.7
3664.24
3516.63
3368.88
3221
3073.01
2924.95
2776.87
2628.8
2480.8
2332.92
2185.21
2037.72
1890.5
1743.59
1597.02
1450.84
1305.1
1159.84
1015.06
870.841
727.016
584.34
441.466
300.716
158.385
46.6388
-0.35357
-0.529894
-0.700081
-0.875546
-1.04894
-1.22456
-1.3997
-1.57554
-1.7515
14658.4
14511.3
14364.2
14217
14070
13922.9
13775.8
13628.8
13481.8
13334.8
13187.8
13040.8
12893.9
12747
12600
12453.1
12306.3
12159.4
12012.6
11865.8
11719
11572.2
11425.4
11278.7
11131.9
10985.3
10838.6
10691.9
10545.3
10398.7
10252.1
10105.5
9958.97
9812.46
9665.96
9519.49
9373.04
9226.62
9080.23
8933.86
8787.51
8641.2
8494.91
8348.64
8202.4
8056.19
7910
7763.85
7617.71
7471.6
7325.51
7179.44
7033.39
6887.36
6741.36
6595.36
6449.37
6303.39
6157.41
6011.42
5865.42
5719.41
5573.37
5427.3
5281.18
5135
4988.73
4842.38
4695.95
4549.4
4402.71
4255.88
4108.89
3961.72
3814.37
3666.83
3519.11
3371.2
3223.13
3074.92
2926.6
2778.23
2629.88
2481.58
2333.41
2185.42
2037.67
1890.22
1743.12
1596.39
1450.09
1304.26
1158.96
1014.2
870.118
726.21
583.965
441.534
301.062
160.028
47.6888
-0.362166
-0.53419
-0.704296
-0.87796
-1.05077
-1.22564
-1.40045
-1.57601
-1.75173
14658.8
14511.7
14364.5
14217.4
14070.3
13923.3
13776.2
13629.2
13482.2
13335.2
13188.2
13041.2
12894.3
12747.4
12600.5
12453.6
12306.7
12159.8
12013
11866.2
11719.4
11572.6
11425.9
11279.2
11132.5
10985.8
10839.1
10692.5
10545.8
10399.2
10252.7
10106.1
9959.6
9813.11
9666.63
9520.18
9373.76
9227.36
9080.99
8934.65
8788.34
8642.05
8495.79
8349.56
8203.36
8057.19
7911.05
7764.93
7618.84
7472.78
7326.74
7180.73
7034.74
6888.78
6742.84
6596.91
6451
6305.09
6159.19
6013.3
5867.39
5721.47
5575.53
5429.55
5283.53
5137.44
4991.27
4845.01
4698.66
4552.18
4405.56
4258.77
4111.8
3964.62
3817.22
3669.6
3521.75
3373.67
3225.38
3076.91
2928.29
2779.59
2630.88
2482.23
2333.7
2185.37
2037.31
1889.58
1742.24
1595.32
1448.86
1302.93
1157.55
1012.72
868.752
724.943
582.608
440.451
300.278
159.576
48.1282
-0.369423
-0.537894
-0.707255
-0.879543
-1.05189
-1.22624
-1.40084
-1.57628
-1.75195
14659.2
14512
14364.9
14217.8
14070.7
13923.6
13776.6
13629.5
13482.5
13335.5
13188.6
13041.6
12894.7
12747.8
12600.9
12454
12307.1
12160.3
12013.4
11866.6
11719.9
11573.1
11426.4
11279.6
11132.9
10986.3
10839.6
10693
10546.4
10399.8
10253.2
10106.7
9960.21
9813.73
9667.28
9520.85
9374.45
9228.08
9081.73
8935.42
8789.13
8642.88
8496.65
8350.46
8204.29
8058.16
7912.06
7765.99
7619.94
7473.93
7327.95
7182
7036.07
6890.17
6744.3
6598.45
6452.61
6306.79
6160.98
6015.17
5869.37
5723.55
5577.71
5431.84
5285.93
5139.96
4993.9
4847.74
4701.49
4555.11
4408.57
4261.83
4114.89
3967.72
3820.29
3672.58
3524.59
3376.33
3227.79
3079.02
2930.05
2780.94
2631.81
2482.73
2333.77
2185.04
2036.61
1888.55
1740.93
1593.78
1447.14
1301.05
1155.55
1010.58
866.548
722.853
580.374
438.307
298.223
157.821
47.727
-0.37548
-0.540116
-0.708838
-0.880074
-1.05215
-1.22623
-1.40084
-1.57635
-1.75215
14659.5
14512.4
14365.2
14218.1
14071
13924
13776.9
13629.9
13482.9
13335.9
13188.9
13042
12895
12748.1
12601.2
12454.4