/*--------------------------------*- C++ -*----------------------------------*\
| =========                 |                                                 |
| \\      /  F ield         | OpenFOAM: The Open Source CFD Toolbox           |
|  \\    /   O peration     | Version:  v2106                                 |
|   \\  /    A nd           | Website:  www.openfoam.com                      |
|    \\/     M anipulation  |                                                 |
\*---------------------------------------------------------------------------*/
FoamFile
{
    version     2.0;
    format      ascii;
    arch        "LSB;label=32;scalar=64";
    class       volScalarField;
    location    "0.6";
    object      p_rgh;
}
// * * * * * * * * * * * * * * * * * * * * * * * * * * * * * * * * * * * * * //

dimensions      [1 -1 -2 0 0 0 0];

internalField   nonuniform List<scalar> 
29678
(
0.324702
0.325204
0.326138
0.327278
0.328592
0.33012
0.331913
0.333997
0.336385
0.339078
0.342079
0.345384
0.348995
0.35291
0.35713
0.361655
0.366487
0.371626
0.377072
0.382827
0.388892
0.395266
0.401951
0.408945
0.416248
0.423859
0.431774
0.439991
0.448504
0.457307
0.466393
0.475752
0.485375
0.49525
0.505367
0.515718
0.526307
0.537139
0.548256
0.559662
0.571279
0.582956
0.594739
0.606815
0.619156
0.631664
0.644295
0.657018
0.669811
0.682654
0.695525
0.708403
0.721263
0.734078
0.746818
0.75945
0.77194
0.784256
0.796364
0.808234
0.819836
0.831133
0.84207
0.852513
0.862401
0.872061
0.881609
0.89088
0.899906
0.908744
0.917433
0.926008
0.934502
0.942956
0.951416
0.959934
0.968571
0.977395
0.986478
0.99589
1.00571
1.01601
1.02689
1.03842
1.05071
1.06397
1.07838
1.09405
1.10972
1.12288
1.1342
1.14548
1.15701
1.16802
1.17798
1.18634
1.19003
1.2051
1.16998
1.41564
1.35051
-0.0178279
-0.0780168
-0.0313239
-0.0474738
-0.0283515
-0.030006
-0.0196774
-0.0155911
-0.00557661
0.972365
0.973104
0.974504
0.976613
0.979696
0.983857
0.989069
0.995266
1.00241
1.01047
1.01944
1.02932
1.04011
1.05181
1.06442
1.07794
1.09238
1.10773
1.12401
1.14122
1.15935
1.17841
1.1984
1.21932
1.24118
1.26395
1.28765
1.31226
1.33777
1.36415
1.3914
1.41947
1.44836
1.47801
1.5084
1.53948
1.57127
1.60373
1.63707
1.67145
1.70667
1.74257
1.77909
1.81614
1.85366
1.89157
1.9298
1.9683
2.007
2.04586
2.08481
2.12379
2.16274
2.20158
2.24022
2.27858
2.31656
2.35409
2.39108
2.42746
2.46317
2.49817
2.53243
2.56589
2.5985
2.63014
2.66056
2.68983
2.71844
2.7466
2.77437
2.80182
2.82901
2.85607
2.88312
2.91032
2.93782
2.96581
2.99449
3.02401
3.05457
3.0863
3.11934
3.15383
3.18998
3.22813
3.26828
3.30807
3.34582
3.38164
3.41587
3.44991
3.48338
3.51449
3.54168
3.56247
3.57259
3.56271
3.49522
3.55561
3.45061
-0.0202299
-0.0728067
-0.027489
-0.0420869
-0.0246599
-0.0265387
-0.0170313
-0.0135869
-0.00461525
1.61895
1.62002
1.62212
1.62547
1.63057
1.63753
1.64625
1.65661
1.66853
1.68196
1.69691
1.71337
1.73134
1.75083
1.77182
1.79434
1.81839
1.84396
1.87108
1.89973
1.92993
1.96168
1.99499
2.02984
2.06625
2.10421
2.14369
2.1847
2.22721
2.27119
2.3166
2.36341
2.41157
2.46102
2.5117
2.5635
2.61648
2.67105
2.72727
2.7849
2.8438
2.90396
2.96518
3.02713
3.08971
3.1529
3.2166
3.28074
3.34521
3.40994
3.47481
3.53974
3.6046
3.66925
3.73356
3.79739
3.86059
3.92301
3.98454
4.04506
4.10449
4.16277
4.21989
4.27593
4.33091
4.38444
4.43624
4.48618
4.53436
4.58149
4.628
4.67394
4.71944
4.76469
4.80991
4.85535
4.90131
4.94807
4.99594
5.04521
5.09616
5.14901
5.20395
5.26121
5.32118
5.38397
5.44704
5.50776
5.56788
5.62905
5.69
5.7499
5.80763
5.86159
5.91023
5.95126
5.98683
6.00637
6.03514
6.1045
6.03977
-0.020199
-0.0587711
-0.0241976
-0.0372989
-0.0212644
-0.0230919
-0.0141725
-0.0114018
-0.00394957
2.26395
2.26538
2.26821
2.27283
2.27995
2.28972
2.30197
2.31649
2.33318
2.35199
2.37291
2.39594
2.42108
2.44834
2.47772
2.50923
2.54287
2.57866
2.6166
2.65669
2.69896
2.7434
2.79001
2.8388
2.88976
2.94289
2.99818
3.05559
3.1151
3.17668
3.24029
3.30586
3.37334
3.44267
3.51374
3.58643
3.66116
3.73845
3.81783
3.89881
3.98136
4.06543
4.15087
4.23746
4.32505
4.41351
4.50273
4.59257
4.6829
4.7736
4.86452
4.95551
5.0464
5.13698
5.22707
5.31646
5.40495
5.49235
5.57848
5.66319
5.74636
5.8279
5.90776
5.98593
6.06238
6.13709
6.21022
6.28152
6.35022
6.41664
6.48177
6.54605
6.60966
6.67288
6.73603
6.79948
6.86363
6.92891
6.99573
7.06449
7.13557
7.20928
7.28587
7.36573
7.44917
7.53439
7.6185
7.70275
7.78953
7.8775
7.96525
8.05151
8.1347
8.21295
8.28443
8.34608
8.40354
8.43284
8.48432
8.49011
8.45694
-0.018551
-0.0464547
-0.0207595
-0.0317102
-0.0181603
-0.0199296
-0.0119686
-0.00973623
-0.00316567
2.90682
2.90861
2.91219
2.91809
2.92724
2.93981
2.95556
2.97423
2.99569
3.01986
3.04674
3.07634
3.10864
3.14366
3.18141
3.2219
3.26513
3.31112
3.35988
3.41141
3.46573
3.52285
3.58277
3.64549
3.71101
3.77932
3.8504
3.92422
4.00076
4.07996
4.16178
4.24616
4.33303
4.42231
4.51391
4.60795
4.70491
4.8047
4.90676
5.01094
5.11713
5.22521
5.33502
5.44636
5.55904
5.6729
5.78777
5.90348
6.01985
6.13672
6.25388
6.37113
6.48823
6.60493
6.72097
6.83609
6.95004
7.06256
7.17345
7.2825
7.38956
7.49448
7.59718
7.69757
7.79564
7.89139
7.98499
8.07664
8.16603
8.25239
8.33622
8.41863
8.50009
8.58098
8.66174
8.74286
8.82487
8.9083
8.9937
9.08157
9.17245
9.26669
9.36469
9.46695
9.5728
9.6796
9.78718
9.89787
10.0118
10.1272
10.2426
10.3563
10.4663
10.5702
10.6657
10.7485
10.8266
10.8654
10.9402
10.9056
10.875
-0.0166407
-0.0371836
-0.0178884
-0.0268862
-0.0155094
-0.0171222
-0.0100669
-0.00826797
-0.00248524
3.54697
3.54915
3.5535
3.56069
3.57185
3.5872
3.60646
3.62927
3.65548
3.68501
3.71784
3.75398
3.79343
3.83621
3.88231
3.93177
3.98457
4.04075
4.10032
4.16328
4.22965
4.29945
4.37267
4.44932
4.52939
4.61288
4.69976
4.79001
4.88359
4.98044
5.08051
5.18374
5.29006
5.39939
5.51166
5.62726
5.74635
5.86848
5.99334
6.12079
6.2507
6.38292
6.51725
6.65349
6.79142
6.93085
7.07156
7.21334
7.35598
7.49925
7.6429
7.78665
7.93021
8.07325
8.21547
8.35655
8.49616
8.63403
8.76989
8.90349
9.03461
9.16308
9.28874
9.41149
9.53126
9.64806
9.76201
9.87334
9.98233
10.0886
10.1915
10.2919
10.3909
10.489
10.5869
10.6853
10.7846
10.8857
10.9891
11.0956
11.2058
11.3202
11.4393
11.5636
11.6911
11.8207
11.9539
12.092
12.2338
12.3778
12.5222
12.665
12.8037
12.9354
13.057
13.1632
13.2632
13.3134
13.4074
13.3429
13.3078
-0.014857
-0.0302968
-0.0154466
-0.0227438
-0.0132713
-0.0146894
-0.00849906
-0.00702832
-0.00191344
4.18385
4.18641
4.19154
4.20002
4.21319
4.23133
4.25407
4.28101
4.31195
4.34682
4.38559
4.42826
4.47485
4.52536
4.57981
4.63821
4.70058
4.76694
4.8373
4.91168
4.9901
5.07256
5.15908
5.24965
5.34428
5.44296
5.54565
5.65234
5.76297
5.8775
5.99586
6.11799
6.24383
6.3733
6.50637
6.64353
6.78471
6.92928
7.07706
7.22792
7.38168
7.53818
7.6972
7.85852
8.0219
8.18711
8.3539
8.52201
8.6912
8.86115
9.03157
9.20211
9.37241
9.5421
9.71078
9.87809
10.0437
10.2072
10.3682
10.5266
10.6821
10.8343
10.9831
11.1283
11.2698
11.4077
11.542
11.6728
11.8006
11.9256
12.0474
12.1661
12.2822
12.397
12.5115
12.6265
12.7425
12.8605
12.9813
13.1058
13.2346
13.3687
13.5089
13.6543
13.8037
13.958
14.1183
14.2843
14.455
14.6289
14.8041
14.9781
15.148
15.3102
15.461
15.5938
15.7187
15.7845
15.8988
15.8187
15.7781
-0.0132343
-0.0251518
-0.0135031
-0.0193577
-0.0114761
-0.012655
-0.00725011
-0.00600535
-0.00147341
4.81687
4.81982
4.82572
4.83549
4.85067
4.87158
4.89779
4.92885
4.96452
5.00471
5.0494
5.09859
5.15229
5.21051
5.27329
5.34062
5.41254
5.48906
5.57021
5.65599
5.74644
5.84156
5.94137
6.04587
6.15506
6.26893
6.38744
6.51058
6.63829
6.77052
6.90721
7.0483
7.19371
7.34339
7.49742
7.6562
7.81948
7.98661
8.15745
8.33185
8.50963
8.69058
8.87449
9.0611
9.25017
9.44142
9.63457
9.82932
10.0254
10.2223
10.4199
10.6175
10.8149
11.0116
11.2071
11.401
11.5929
11.7823
11.969
12.1525
12.3325
12.5086
12.6807
12.8486
13.012
13.1709
13.3255
13.4759
13.6223
13.7651
13.9045
14.0409
14.1743
14.3055
14.4358
14.5663
14.698
14.8319
14.9693
15.111
15.2584
15.4121
15.5722
15.7384
15.9111
16.0911
16.2785
16.4731
16.674
16.8796
17.0877
17.2955
17.4997
17.6962
17.8802
18.0439
18.1982
18.2853
18.4237
18.3411
18.2943
-0.0118871
-0.0212647
-0.0119868
-0.0166163
-0.010063
-0.0109761
-0.00626917
-0.00516735
-0.00114655
5.44543
5.44877
5.45545
5.46651
5.4837
5.50737
5.53704
5.5722
5.61257
5.65807
5.70865
5.76434
5.82513
5.89106
5.96214
6.03839
6.11983
6.2065
6.29841
6.39559
6.49805
6.60582
6.71892
6.83734
6.96109
7.09015
7.2245
7.3641
7.50892
7.65889
7.81395
7.97404
8.13909
8.30901
8.48419
8.66475
8.85017
9.03996
9.23399
9.43209
9.63407
9.83969
10.0487
10.2609
10.4759
10.6935
10.9133
11.1351
11.3583
11.5827
11.8077
12.0329
12.2578
12.4818
12.7046
12.9255
13.1441
13.36
13.5726
13.7816
13.9864
14.1868
14.3825
14.5731
14.7585
14.9386
15.1135
15.2833
15.4482
15.6086
15.765
15.9177
16.0673
16.2146
16.3602
16.5056
16.6522
16.8013
16.9544
17.1128
17.2775
17.4492
17.6285
17.816
18.012
18.2173
18.4322
18.6564
18.8889
19.1282
19.3719
19.6168
19.859
20.094
20.3162
20.5166
20.7064
20.822
20.9899
20.9192
20.8684
-0.0110671
-0.0182088
-0.0108451
-0.0144488
-0.00900489
-0.00963776
-0.00554114
-0.00450496
-0.000924238
6.06897
6.07269
6.08015
6.0925
6.11168
6.1381
6.17121
6.21045
6.25552
6.30629
6.36276
6.42492
6.49279
6.56639
6.64575
6.73089
6.82184
6.91863
7.02129
7.12983
7.2443
7.36471
7.49108
7.62342
7.76173
7.90599
8.05618
8.21227
8.37421
8.54195
8.71543
8.89458
9.07933
9.26965
9.46609
9.66852
9.87617
10.0888
10.3062
10.5281
10.7545
10.985
11.2194
11.4575
11.6988
11.9431
12.1899
12.439
12.6899
12.942
13.195
13.4481
13.701
13.953
14.2035
14.4519
14.6978
14.9405
15.1796
15.4144
15.6446
15.8696
16.089
16.3026
16.5101
16.7115
16.9066
17.0957
17.279
17.4569
17.6298
17.7983
17.9631
18.1251
18.2853
18.4451
18.606
18.7694
18.937
19.1103
19.2906
19.479
19.6766
19.8843
20.1031
20.3339
20.5768
20.8317
21.0976
21.3728
21.655
21.9406
22.2253
22.504
22.7704
23.0142
23.2468
23.3996
23.6044
23.5609
23.5094
-0.0105214
-0.0159909
-0.00999222
-0.0128097
-0.00824716
-0.00861366
-0.0050306
-0.00399966
-0.000784536
6.68689
6.691
6.69923
6.71286
6.73403
6.76318
6.79973
6.84303
6.89276
6.9488
7.01112
7.07972
7.15464
7.23589
7.3235
7.41751
7.51794
7.62483
7.73821
7.85811
7.98456
8.11759
8.25723
8.40347
8.55633
8.71579
8.88183
9.05442
9.23352
9.41906
9.611
9.80927
10.0138
10.2248
10.4426
10.6669
10.8969
11.1325
11.3734
11.6195
11.8705
12.1262
12.3862
12.6504
12.9184
13.1897
13.4641
13.741
14.0199
14.3003
14.5816
14.8633
15.1447
15.4251
15.7039
15.9805
16.2542
16.5244
16.7904
17.0517
17.3075
17.5575
17.8011
18.038
18.2678
18.4904
18.7058
18.9141
19.1155
19.3103
19.4991
19.6826
19.8617
20.0373
20.2108
20.3835
20.557
20.7331
20.9135
21.1
21.2942
21.4979
21.7128
21.9402
22.1816
22.4378
22.7093
22.9959
23.2969
23.6107
23.9345
24.2649
24.5971
24.9255
25.2429
25.538
25.8223
26.0225
26.2731
26.2733
26.2263
-0.0102628
-0.0143205
-0.00951928
-0.0116748
-0.00773871
-0.00790143
-0.0047069
-0.00364803
-0.000704825
7.29861
7.3031
7.3121
7.32701
7.35016
7.38203
7.42198
7.46933
7.5237
7.58498
7.65312
7.72815
7.81008
7.89895
7.99479
8.09763
8.20752
8.32448
8.44855
8.57977
8.71819
8.86382
9.0167
9.17685
9.34425
9.51891
9.70081
9.88991
10.0862
10.2896
10.5
10.7175
10.9419
11.1737
11.413
11.6592
11.9117
12.1704
12.4351
12.7055
12.9814
13.2625
13.5486
13.8394
14.1343
14.4332
14.7354
15.0405
15.348
15.6572
15.9675
16.2783
16.5888
16.8983
17.2061
17.5116
17.8138
18.1121
18.4057
18.6939
18.976
19.2515
19.5196
19.7801
20.0324
20.2765
20.5121
20.7393
20.9583
21.1695
21.3735
21.571
21.7631
21.9508
22.1357
22.3193
22.5035
22.6901
22.8813
23.0792
23.2858
23.5037
23.7349
23.9812
24.2445
24.5259
24.8262
25.1456
25.4834
25.8382
26.2072
26.5868
26.972
27.3567
27.733
28.0884
28.4347
28.694
29.0015
29.0629
29.0274
-0.010315
-0.0131862
-0.00944977
-0.0109304
-0.00737794
-0.00754307
-0.00452213
-0.00347401
-0.000644888
7.90355
7.90843
7.9182
7.93437
7.95949
7.99406
8.0374
8.08876
8.14776
8.21424
8.28818
8.3696
8.45852
8.55498
8.659
8.77065
8.88994
9.01694
9.15167
9.2942
9.44455
9.60276
9.76887
9.94288
10.1248
10.3147
10.5124
10.7181
10.9315
11.1528
11.3818
11.6185
11.863
12.1158
12.3767
12.6449
12.92
13.202
13.4906
13.7856
14.0867
14.3936
14.7061
15.0238
15.3462
15.673
16.0036
16.3374
16.674
17.0126
17.3525
17.693
18.0333
18.3727
18.7103
19.0453
19.3768
19.7039
20.0259
20.3418
20.6508
20.9523
21.2456
21.53
21.8051
22.0707
22.3264
22.5723
22.8086
23.0356
23.2538
23.4643
23.6679
23.8662
24.0606
24.253
24.4456
24.6405
24.8402
25.0473
25.2644
25.4947
25.7404
26.0042
26.2882
26.5942
26.9234
27.2764
27.6526
28.0509
28.4687
28.9023
29.3464
29.7948
30.2387
30.6647
31.0847
31.4164
31.7937
31.9352
31.9208
-0.0106698
-0.0125572
-0.00971068
-0.0104618
-0.00752787
-0.00727726
-0.00441732
-0.00355344
-0.000519057
8.50114
8.5064
8.51693
8.53436
8.56143
8.59869
8.6454
8.70075
8.76433
8.83599
8.9157
9.00347
9.09934
9.20334
9.31552
9.43593
9.5646
9.70159
9.84695
10.0007
10.163
10.3337
10.5131
10.7009
10.8974
11.1024
11.316
11.5382
11.7689
12.008
12.2557
12.5117
12.7765
13.0504
13.3329
13.6232
13.9211
14.2266
14.5394
14.8592
15.1858
15.5188
15.8581
16.2031
16.5534
16.9086
17.2681
17.6313
17.9976
18.3662
18.7364
19.1074
19.4784
19.8484
20.2166
20.582
20.9436
21.3005
21.6516
21.996
22.3327
22.661
22.9799
23.2888
23.5871
23.8743
24.1502
24.4146
24.6677
24.9097
25.1414
25.3635
25.5773
25.7842
25.9861
26.1851
26.3836
26.5842
26.7897
27.0033
27.2285
27.4685
27.7265
28.0058
28.309
28.6386
28.9963
29.3831
29.7991
30.2434
30.7135
31.206
31.7156
32.2356
32.7569
33.2649
33.7717
34.1908
34.6531
34.895
34.9142
-0.011308
-0.0124236
-0.0102494
-0.0103175
-0.00791904
-0.00714852
-0.00465028
-0.00335012
-0.00072819
9.09081
9.09645
9.10773
9.12641
9.15541
9.19534
9.24539
9.3047
9.37284
9.44964
9.53508
9.62917
9.73194
9.84345
9.96374
10.0929
10.2309
10.3778
10.5337
10.6988
10.8729
11.0561
11.2486
11.4503
11.6613
11.8815
12.1109
12.3496
12.5975
12.8546
13.1209
13.3964
13.6817
13.9768
14.2808
14.5934
14.9143
15.2435
15.5807
15.9256
16.278
16.6376
17.004
17.3767
17.7555
18.1396
18.5286
18.9217
19.3184
19.7177
20.119
20.5213
20.9238
21.3254
21.7251
22.1219
22.5146
22.9021
23.2834
23.6573
24.0226
24.3785
24.7238
25.0578
25.3797
25.6889
25.985
26.2677
26.5372
26.7936
27.0376
27.2701
27.4924
27.7061
27.9132
28.1162
28.3177
28.5209
28.7292
28.9462
29.176
29.4226
29.69
29.982
30.3023
30.6538
31.0391
31.4598
31.9166
32.409
32.9351
33.4915
34.0732
34.6734
35.2827
35.885
36.4934
37.0168
37.582
37.9462
38.015
-0.0122059
-0.012786
-0.0110377
-0.0105272
-0.00850838
-0.00723711
-0.0050105
-0.00329592
-0.000908652
9.67198
9.67799
9.69003
9.70994
9.74086
9.78343
9.83679
9.90004
9.9727
10.0546
10.1457
10.2461
10.3557
10.4747
10.603
10.7408
10.8881
11.045
11.2114
11.3876
11.5735
11.7693
11.9749
12.1904
12.4158
12.6511
12.8964
13.1516
13.4168
13.6918
13.9768
14.2721
14.578
14.8942
15.2198
15.5548
15.8989
16.252
16.6138
16.9841
17.3627
17.7491
18.1431
18.5441
18.9517
19.3654
19.7844
20.2082
20.636
21.0669
21.5001
21.9347
22.3696
22.8037
23.236
23.6652
24.0901
24.5095
24.922
25.3264
25.7214
26.1058
26.4784
26.8383
27.1844
27.5159
27.8324
28.1335
28.419
28.6892
28.9445
29.186
29.4149
29.6332
29.843
30.047
30.2485
30.4508
30.6581
30.8746
31.1051
31.3542
31.6272
31.9287
32.263
32.6341
33.0454
33.4994
33.9974
34.5398
35.1251
35.7506
36.4113
37.1007
37.809
38.5193
39.2452
39.8918
40.5807
41.0915
41.2299
-0.013356
-0.0136438
-0.0120693
-0.011108
-0.00926141
-0.00758047
-0.00544984
-0.00339447
-0.00107106
10.2441
10.2505
10.2632
10.2844
10.3172
10.3624
10.419
10.4862
10.5633
10.6503
10.7471
10.8536
10.9701
11.0965
11.2328
11.3792
11.5357
11.7024
11.8793
12.0666
12.2643
12.4725
12.6911
12.9204
13.1602
13.4107
13.6717
13.9435
14.2259
14.5189
14.8227
15.1379
15.4646
15.8017
16.1491
16.5066
16.874
17.2512
17.638
18.034
18.4391
18.8528
19.2747
19.7045
20.1416
20.5853
21.0351
21.4903
21.95
22.4134
22.8794
23.3472
23.8156
24.2834
24.7494
25.2122
25.6706
26.123
26.568
27.0042
27.4301
27.8442
28.2452
28.6318
29.0028
29.3574
29.6946
30.014
30.3153
30.5985
30.8642
31.1131
31.3469
31.5674
31.777
31.9789
32.1765
32.374
32.5759
32.7873
33.0138
33.2603
33.5345
33.841
34.1855
34.573
35.0079
35.4938
36.0329
36.6264
37.2739
37.9732
38.7197
39.5073
40.3263
41.1588
42.0198
42.8105
43.6477
44.332
44.5647
-0.0151592
-0.0149814
-0.0133883
-0.0120595
-0.0101706
-0.00818313
-0.0059491
-0.00364397
-0.00121452
10.8066
10.8133
10.8268
10.8492
10.8839
10.9317
10.9916
11.0626
11.1441
11.2361
11.3385
11.4512
11.5744
11.7082
11.8524
12.0074
12.173
12.3495
12.5369
12.7352
12.9446
13.1651
13.3968
13.6397
13.8939
14.1594
14.4363
14.7245
15.0241
15.3352
15.6581
15.9933
16.3404
16.6986
17.0679
17.4481
17.839
18.2406
18.6525
19.0745
19.5064
19.9477
20.3981
20.8571
21.3242
21.7988
22.2801
22.7674
23.2599
23.7566
24.2566
24.7586
25.2616
25.7643
26.2652
26.7631
27.2562
27.7432
28.2222
28.6916
29.1497
29.5949
30.0255
30.44
30.837
31.2153
31.5738
31.9118
32.2286
32.5243
32.7993
33.0542
33.2908
33.5109
33.7173
33.9133
34.1028
34.2907
34.482
34.6829
34.9001
35.1376
35.4076
35.7138
36.0635
36.4631
36.9181
37.4335
38.0126
38.6579
39.3698
40.147
40.9859
41.8808
42.8225
43.7921
44.8066
45.764
46.7771
47.667
48.0238
-0.0170526
-0.0167854
-0.0149547
-0.0133468
-0.0112618
-0.00899917
-0.0065476
-0.00398937
-0.00135808
11.3589
11.366
11.3802
11.4038
11.4403
11.4907
11.5538
11.6286
11.7146
11.8115
11.9194
12.0383
12.1682
12.3092
12.4613
12.6247
12.7995
12.9856
13.1833
13.3926
13.6136
13.8464
14.091
14.3476
14.6161
14.8966
15.1892
15.4939
15.8107
16.1399
16.4821
16.8373
17.2047
17.584
17.9753
18.3783
18.7929
19.219
19.6564
20.1047
20.5638
21.0331
21.5125
22.0013
22.499
23.0049
23.5185
24.0388
24.565
25.0961
25.631
26.1685
26.7074
27.2463
27.7836
28.3179
28.8475
29.3705
29.8851
30.3893
30.8814
31.3592
31.8209
32.2647
32.689
33.0921
33.4726
33.8294
34.1619
34.4696
34.7528
35.0123
35.2496
35.4666
35.6663
35.8523
36.029
36.2018
36.3766
36.5602
36.7604
36.9848
37.2426
37.5417
37.8902
38.2962
38.7666
39.3078
39.9249
40.6214
41.399
42.2578
43.195
44.2059
45.2821
46.4042
47.5912
48.7384
49.9547
51.0944
51.6094
-0.0194385
-0.0190583
-0.016841
-0.0149584
-0.0125742
-0.0100012
-0.00725837
-0.00440503
-0.00151017
11.9005
11.9079
11.9229
11.9476
11.986
12.0389
12.1052
12.1838
12.2741
12.3759
12.4893
12.6142
12.7507
12.8989
13.0588
13.2306
13.4144
13.6102
13.8181
14.0383
14.2708
14.5158
14.7733
15.0434
15.3261
15.6216
15.9298
16.251
16.585
16.9325
17.294
17.6688
18.0566
18.4572
18.8705
19.2965
19.735
20.1858
20.6488
21.1238
21.6103
22.1082
22.6169
23.136
23.6649
24.203
24.7496
25.3038
25.8647
26.4312
27.0022
27.5765
28.1526
28.7291
29.3045
29.8769
30.4446
31.0054
31.5574
32.0984
32.6262
33.1385
33.6332
34.1081
34.561
34.9902
35.3937
35.7701
36.1184
36.4379
36.7286
36.9912
37.2269
37.4379
37.6272
37.7986
37.9571
38.1087
38.2601
38.4193
38.5952
38.797
39.0347
39.3185
39.6581
40.0632
40.5428
41.1048
41.7562
42.502
43.3456
44.2882
45.3288
46.464
47.6864
48.9762
50.3551
51.715
53.1588
54.5966
55.3198
-0.0223341
-0.0217861
-0.0190671
-0.0168866
-0.0141203
-0.0111879
-0.00809642
-0.00489912
-0.00167871
12.4308
12.4386
12.4542
12.4801
12.5204
12.5757
12.6452
12.7275
12.8221
12.9288
13.0475
13.1784
13.3214
13.4767
13.6444
13.8245
14.0172
14.2225
14.4406
14.6716
14.9155
15.1726
15.4428
15.7263
16.0232
16.3335
16.6574
16.9949
17.3463
17.7122
18.0928
18.4872
18.8953
19.3172
19.7527
20.2017
20.6642
21.14
21.6289
22.1307
22.6451
23.1718
23.7104
24.2604
24.8212
25.3922
25.9726
26.5616
27.1581
27.7612
28.3695
28.9819
29.5967
30.2125
30.8276
31.4399
32.0476
32.6484
33.2399
33.8197
34.3854
34.9344
35.4642
35.9722
36.4557
36.9126
37.3405
37.7375
38.1021
38.4334
38.731
38.9953
39.2273
39.4291
39.6038
39.7556
39.8899
40.0133
40.1337
40.26
40.4023
40.5716
40.7791
41.0378
41.3589
41.7541
42.2347
42.8108
43.4912
44.2829
45.191
46.2187
47.3665
48.6331
50.013
51.4857
53.0762
54.6726
56.367
58.1416
59.1497
-0.0257311
-0.024955
-0.0216422
-0.0191262
-0.0159005
-0.0125606
-0.00907434
-0.00548905
-0.00187136
12.9493
12.9574
12.9738
13.0008
13.0428
13.1007
13.1732
13.2592
13.358
13.4695
13.5935
13.7303
13.8798
14.0421
14.2174
14.4057
14.6072
14.8219
15.0501
15.2917
15.547
15.816
16.0989
16.3958
16.7067
17.0318
17.3711
17.7249
18.0938
18.4781
18.8775
19.2914
19.7199
20.1631
20.6208
21.093
21.5796
22.0805
22.5955
23.1245
23.6671
24.2231
24.792
25.3734
25.9667
26.5713
27.1864
27.8111
28.4444
29.0852
29.7322
30.384
31.0392
31.696
32.3526
33.0069
33.6567
34.2996
34.9329
35.5541
36.1602
36.7485
37.3159
37.8594
38.3759
38.8625
39.3165
39.7355
40.1174
40.4609
40.765
41.0296
41.2557
41.4451
41.6009
41.7276
41.831
41.9186
41.999
42.0825
42.1805
42.306
42.4711
42.6929
42.9837
43.358
43.8294
44.4107
45.1128
45.945
46.9145
48.0264
49.2839
50.6881
52.2359
53.9067
55.729
57.5879
59.5611
61.7024
63.0891
-0.0296393
-0.028559
-0.0245645
-0.0216708
-0.0179038
-0.0141055
-0.0101747
-0.00615085
-0.00208459
13.4554
13.4639
13.481
13.5092
13.5529
13.6132
13.6887
13.7783
13.8813
13.9975
14.1268
14.2694
14.4252
14.5945
14.7772
14.9736
15.1838
15.4078
15.6459
15.8981
16.1646
16.4455
16.7409
17.051
17.3758
17.7155
18.0703
18.4405
18.8269
19.2293
19.6472
20.0806
20.5296
20.994
21.4739
21.9694
22.4802
23.0064
23.5477
24.1041
24.6753
25.2609
25.8606
26.474
27.1004
27.7394
28.39
29.0513
29.7224
30.4022
31.0892
31.7821
32.4793
33.179
33.8791
34.5776
35.2718
35.9593
36.6371
37.3024
37.9519
38.5824
39.1903
39.7722
40.3244
40.8434
41.3258
41.7687
42.1694
42.5257
42.8362
43.1002
43.3183
43.492
43.6244
43.7201
43.7854
43.8283
43.8587
43.8881
43.9294
43.9977
44.1062
44.2771
44.5234
44.8632
45.3127
45.8878
46.6021
47.4673
48.4927
49.6859
51.0534
52.5996
54.3248
56.2082
58.2833
60.4328
62.7213
65.2553
67.1217
-0.0340676
-0.0326019
-0.0278266
-0.0245038
-0.0201057
-0.0157977
-0.0113676
-0.00685533
-0.00231187
13.9487
13.9575
13.9753
14.0046
14.0501
14.1127
14.1912
14.2844
14.3914
14.5122
14.6467
14.795
14.9571
15.1332
15.3233
15.5277
15.7464
15.9797
16.2275
16.4901
16.7677
17.0603
17.368
17.6912
18.0298
18.384
18.7542
19.1409
19.5446
19.9647
20.4012
20.854
21.3232
21.8089
22.3112
22.8299
23.365
23.9166
24.4844
25.0684
25.6684
26.284
26.915
27.5609
28.2211
28.8951
29.582
30.281
30.9911
31.711
32.4395
33.1751
33.9161
34.6606
35.4065
36.1514
36.8927
37.6274
38.3528
39.0653
39.7615
40.4375
41.0894
41.7131
42.3044
42.8589
43.3728
43.8421
44.2635
44.634
44.9513
45.2142
45.4225
45.5773
45.6816
45.74
45.7592
45.7478
45.7168
45.679
45.6492
45.6449
45.6801
45.7834
45.9686
46.2574
46.6694
47.2238
47.9379
48.826
49.8994
51.1683
52.6433
54.3337
56.244
58.3535
60.7021
63.1713
65.8172
68.7681
71.2218
-0.0390232
-0.0370814
-0.0314036
-0.027605
-0.0224663
-0.017618
-0.0126367
-0.00759897
-0.00255176
14.4286
14.4378
14.4562
14.4866
14.5338
14.5987
14.6802
14.7768
14.8879
15.0132
15.1528
15.3066
15.4749
15.6577
15.8551
16.0673
16.2945
16.5367
16.7942
17.0671
17.3555
17.6596
17.9796
18.3156
18.6679
19.0365
19.4221
19.8253
20.2459
20.6835
21.1384
21.6105
22.1
22.6069
23.1314
23.6734
24.2329
24.8099
25.4044
26.0163
26.6453
27.2913
27.954
28.6328
29.3274
30.0372
30.7613
31.4989
32.249
33.0105
33.7819
34.5618
35.3485
36.1399
36.9338
37.7277
38.5188
39.3041
40.0801
40.8434
41.5899
42.3153
43.0152
43.6847
44.319
44.9131
45.4621
45.9613
46.4063
46.793
47.1183
47.38
47.577
47.71
47.7814
47.7959
47.7602
47.6837
47.5783
47.4586
47.3413
47.2467
47.1884
47.2051
47.3096
47.5277
47.8831
48.399
49.097
49.9949
51.1055
52.4411
54.018
55.8522
57.9529
60.2993
62.9404
65.7567
68.8033
72.1915
75.3508
-0.0445086
-0.0420039
-0.0352519
-0.030953
-0.0249308
-0.0195596
-0.0139669
-0.00837616
-0.00280714
14.8946
14.9041
14.9232
14.9546
15.0035
15.0708
15.1551
15.2551
15.3701
15.4999
15.6444
15.8038
15.978
16.1674
16.3719
16.5919
16.8273
17.0784
17.3453
17.6283
17.9274
18.2429
18.575
18.9237
19.2894
19.6723
20.0734
20.4926
20.9298
21.3848
21.858
22.3493
22.8589
23.387
23.9336
24.4988
25.0827
25.6853
26.3066
26.9465
27.6048
28.2814
28.9761
29.6884
30.418
31.1642
31.9263
32.7035
33.4948
34.299
35.1149
35.9409
36.7751
37.6156
38.46
39.3056
40.1496
40.9886
41.819
42.6369
43.4378
44.2171
44.9695
45.6896
46.3719
47.0103
47.5991
48.1324
48.6046
49.0106
49.3458
49.607
49.792
49.9006
49.9346
49.8981
49.7981
49.6444
49.4503
49.2317
49.0079
48.8021
48.6288
48.5358
48.5366
48.6609
48.937
49.3924
50.0539
50.9446
52.0778
53.468
55.1381
57.1126
59.4056
61.9954
64.9445
68.1301
71.619
75.458
79.452
-0.0504851
-0.0473055
-0.0392937
-0.034514
-0.0274053
-0.0216197
-0.015317
-0.00916684
-0.00308165
15.3463
15.3561
15.3758
15.4083
15.4588
15.5283
15.6154
15.7188
15.8376
15.9717
16.1211
16.2858
16.466
16.6618
16.8733
17.1008
17.3443
17.6041
17.8803
18.1732
18.4828
18.8095
19.1533
19.5146
19.8936
20.2909
20.7071
21.142
21.5955
22.0678
22.559
23.0693
23.5989
24.148
24.7167
25.3051
25.9134
26.5415
27.1896
27.8576
28.5454
29.2529
29.98
30.7262
31.4912
32.2745
33.0754
33.8931
34.7267
35.5751
36.4369
37.3106
38.1944
39.0863
39.9837
40.884
41.784
42.6803
43.569
44.4458
45.3059
46.1439
46.9542
47.7305
48.4663
49.1549
49.7891
50.3619
50.8662
51.2955
51.6439
51.9064
52.0795
52.1618
52.1539
52.0595
51.8851
51.6412
51.342
51.0053
50.6533
50.3131
49.9974
49.7695
49.6399
49.6437
49.8141
50.1833
50.7831
51.6439
52.7829
54.213
55.9647
58.0709
60.5513
63.3829
66.652
70.2183
74.1928
78.4811
83.4475
-0.0569101
-0.0529591
-0.0434383
-0.038248
-0.0298145
-0.0237968
-0.0166381
-0.00993745
-0.0033857
15.7831
15.7932
15.8135
15.8471
15.8991
15.9708
16.0607
16.1673
16.2899
16.4282
16.5823
16.7523
16.9382
17.1403
17.3586
17.5934
17.8449
18.1132
18.3985
18.701
19.021
19.3586
19.7141
20.0876
20.4798
20.8914
21.3223
21.7725
22.2421
22.7314
23.2404
23.7696
24.319
24.889
25.4796
26.0911
26.7236
27.3773
28.0522
28.7483
29.4657
30.2043
30.964
31.7445
32.5454
33.3664
34.2068
35.0659
35.9429
36.8366
37.7459
38.6691
39.6046
40.5501
41.5033
42.4612
43.4207
44.3781
45.3294
46.2698
47.1941
48.0965
48.9706
49.8095
50.6056
51.3511
52.0377
52.6568
53.1996
53.6579
54.0239
54.2909
54.4535
54.5084
54.4548
54.2953
54.0361
53.6877
53.2652
52.7885
52.2828
51.7813
51.2929
50.9005
50.6092
50.4618
50.4975
50.7526
51.2639
52.0658
53.1848
54.6387
56.4594
58.6802
61.3323
64.39
67.9933
71.9253
76.4581
81.1472
87.2309
-0.0636228
-0.0587951
-0.0475557
-0.0419534
-0.0321583
-0.0258701
-0.0180109
-0.0107712
-0.00360136
16.2045
16.215
16.2359
16.2704
16.3241
16.3978
16.4904
16.6001
16.7264
16.8689
17.0276
17.2026
17.3942
17.6023
17.8273
18.0693
18.3285
18.6051
18.8993
19.2113
19.5413
19.8896
20.2564
20.6421
21.0475
21.4729
21.9181
22.3834
22.8688
23.3748
23.9015
24.4492
25.0182
25.6088
26.2212
26.8556
27.5122
28.1913
28.8929
29.6172
30.3643
31.1341
31.9266
32.7416
33.5788
34.438
35.3186
36.22
37.1413
38.0816
39.0398
40.0143
41.0034
42.005
43.0166
44.0353
45.0578
46.0805
47.0989
48.108
49.1022
50.0752
51.02
51.9287
52.7929
53.6034
54.3506
55.0242
55.6136
56.1083
56.4984
56.7749
56.9299
56.9578
56.8557
56.6246
56.2697
55.8013
55.2353
54.5934
53.9031
53.201
52.5238
51.9239
51.4329
51.0987
50.9664
51.0776
51.4722
52.1813
53.2436
54.6958
56.565
58.8775
61.6788
64.9213
68.9015
73.1095
78.4479
83.2471
90.6581
-0.0705423
-0.0646773
-0.0516755
-0.0451347
-0.0351046
-0.0276043
-0.0191952
-0.0114855
-0.00384756
16.6102
16.621
16.6424
16.678
16.7331
16.8089
16.9041
17.0169
17.1467
17.2931
17.4563
17.6363
17.8333
18.0474
18.2789
18.5279
18.7946
19.0792
19.382
19.7032
20.0431
20.4018
20.7798
21.1776
21.5958
22.0345
22.4937
22.9737
23.4747
23.9971
24.5411
25.1071
25.6955
26.3064
26.9403
27.5974
28.2779
28.9822
29.7105
30.4628
31.2395
32.0405
32.8659
33.7157
34.5896
35.4874
36.4087
37.3531
38.3197
39.3078
40.3163
41.3437
42.3884
43.4483
44.5211
45.6038
46.6931
47.7853
48.8756
49.959
51.0293
52.0798
53.1027
54.0895
55.0308
55.9159
56.7336
57.4718
58.1177
58.6585
59.0816
59.3747
59.5272
59.5304
59.3784
59.0699
58.6085
58.0038
57.2721
56.4371
55.5297
54.5923
53.6748
52.8287
52.0958
51.5329
51.1926
51.1223
51.3644
51.9485
52.9166
54.3265
56.21
58.5822
61.5161
64.8415
69.3155
73.5914
79.9912
84.8094
93.5396
-0.077664
-0.0700498
-0.0563001
-0.0478274
-0.037283
-0.0289616
-0.0201669
-0.0120743
-0.004089
16.9997
17.0107
17.0328
17.0692
17.1258
17.2036
17.3013
17.4171
17.5503
17.7006
17.8681
18.0529
18.2552
18.4751
18.7128
18.9685
19.2425
19.535
19.8462
20.1763
20.5257
20.8946
21.2835
21.6932
22.1238
22.5754
23.0483
23.5426
24.0588
24.5973
25.1583
25.7423
26.3496
26.9806
27.6357
28.3152
29.0194
29.7487
30.5033
31.2836
32.0897
32.9219
33.7802
34.6648
35.5756
36.5123
37.4749
38.4628
39.4756
40.5125
41.5725
42.6545
43.7567
44.8773
46.0139
47.1639
48.3239
49.4898
50.6572
51.8206
52.9736
54.109
55.2186
56.2928
57.3213
58.292
59.1919
60.0069
60.7218
61.321
61.7885
62.1085
62.2665
62.2498
62.0489
61.6588
61.0807
60.3225
59.4008
58.3409
57.1776
55.9591
54.7504
53.6072
52.5817
51.7402
51.1436
50.8451
50.8905
51.3162
52.1621
53.4891
55.3405
57.7228
60.7925
64.0354
68.9397
73.6587
80.3374
86.4536
95.6413
-0.0862597
-0.074346
-0.0605143
-0.050241
-0.0391105
-0.030051
-0.020917
-0.0125409
-0.0043286
17.3725
17.3838
17.4064
17.4437
17.5017
17.5815
17.6815
17.8002
17.9367
18.0908
18.2625
18.4519
18.6593
18.8847
19.1285
19.3907
19.6718
19.9718
20.2911
20.6299
20.9886
21.3674
21.7671
22.1882
22.6308
23.0949
23.581
24.0893
24.6204
25.1746
25.7522
26.3538
26.9797
27.6304
28.3063
29.0078
29.7353
30.4892
31.27
32.0779
32.9132
33.7764
34.6676
35.587
36.5347
37.5106
38.5147
39.5467
40.6062
41.6928
42.8056
43.9435
45.105
46.2885
47.4918
48.7122
49.9465
51.1908
52.4404
53.6898
54.9326
56.1611
57.3664
58.5385
59.6656
60.7344
61.7303
62.6367
63.4357
64.1086
64.6355
64.9963
65.1714
65.1433
64.8976
64.4242
63.7203
62.7913
61.6529
60.3319
58.867
57.312
55.7526
54.2513
52.8723
51.6936
50.7859
50.2096
50.0153
50.245
50.9398
52.151
53.9238
56.2415
59.4267
62.7684
67.5829
72.5763
79.5531
85.9997
96.5408
-0.0935166
-0.0780506
-0.063474
-0.0518243
-0.0402336
-0.0306442
-0.0213116
-0.0128145
-0.00454011
17.7282
17.7397
17.7629
17.8011
17.8604
17.9421
18.0444
18.1658
18.3055
18.4632
18.6389
18.8328
19.0451
19.2759
19.5254
19.794
20.0818
20.3892
20.7163
21.0635
21.431
21.8196
22.2298
22.6619
23.1159
23.5921
24.091
24.613
25.1586
25.728
26.3218
26.9406
27.5846
28.2545
28.9508
29.6739
30.4243