/*--------------------------------*- C++ -*----------------------------------*\
| =========                 |                                                 |
| \\      /  F ield         | OpenFOAM: The Open Source CFD Toolbox           |
|  \\    /   O peration     | Version:  v2106                                 |
|   \\  /    A nd           | Website:  www.openfoam.com                      |
|    \\/     M anipulation  |                                                 |
\*---------------------------------------------------------------------------*/
FoamFile
{
    version     2.0;
    format      ascii;
    arch        "LSB;label=32;scalar=64";
    class       surfaceScalarField;
    location    "0.6";
    object      phi;
}
// * * * * * * * * * * * * * * * * * * * * * * * * * * * * * * * * * * * * * //

dimensions      [0 3 -1 0 0 0 0];

oriented        oriented;

internalField   nonuniform List<scalar> 
59425
(
-1.12083e-09
-1.13368e-06
-2.37102e-09
-1.13943e-06
-3.65868e-09
-1.14161e-06
-4.93464e-09
-1.14433e-06
-6.20931e-09
-1.14795e-06
-7.49038e-09
-1.15271e-06
-8.77775e-09
-1.15874e-06
-1.00692e-08
-1.16602e-06
-1.13638e-08
-1.1745e-06
-1.26621e-08
-1.18412e-06
-1.39654e-08
-1.19487e-06
-1.52753e-08
-1.20672e-06
-1.65929e-08
-1.21968e-06
-1.79191e-08
-1.23375e-06
-1.92548e-08
-1.24893e-06
-2.06006e-08
-1.26524e-06
-2.19569e-08
-1.28268e-06
-2.33242e-08
-1.30126e-06
-2.47026e-08
-1.32098e-06
-2.60922e-08
-1.34185e-06
-2.74932e-08
-1.36387e-06
-2.89053e-08
-1.38706e-06
-3.03283e-08
-1.41143e-06
-3.17619e-08
-1.43697e-06
-3.32054e-08
-1.46369e-06
-3.46583e-08
-1.4916e-06
-3.61195e-08
-1.5207e-06
-3.7588e-08
-1.551e-06
-3.90624e-08
-1.5825e-06
-4.05412e-08
-1.61519e-06
-4.20223e-08
-1.64908e-06
-4.35037e-08
-1.68417e-06
-4.49828e-08
-1.72045e-06
-4.64566e-08
-1.75791e-06
-4.79223e-08
-1.79654e-06
-4.93766e-08
-1.83634e-06
-5.08169e-08
-1.87728e-06
-5.22406e-08
-1.91934e-06
-5.36439e-08
-1.96252e-06
-5.50195e-08
-2.0068e-06
-5.63567e-08
-2.05215e-06
-5.76439e-08
-2.09857e-06
-5.88716e-08
-2.14599e-06
-6.00311e-08
-2.19438e-06
-6.11144e-08
-2.2437e-06
-6.21166e-08
-2.2939e-06
-6.30332e-08
-2.3449e-06
-6.38597e-08
-2.39665e-06
-6.45909e-08
-2.44907e-06
-6.5221e-08
-2.50209e-06
-6.57435e-08
-2.55561e-06
-6.61511e-08
-2.60955e-06
-6.64354e-08
-2.66379e-06
-6.65873e-08
-2.71824e-06
-6.65961e-08
-2.77277e-06
-6.64501e-08
-2.82726e-06
-6.61358e-08
-2.88156e-06
-6.56383e-08
-2.93555e-06
-6.49406e-08
-2.98907e-06
-6.40233e-08
-3.04195e-06
-6.28647e-08
-3.09404e-06
-6.14406e-08
-3.14515e-06
-5.97263e-08
-3.19511e-06
-5.77049e-08
-3.2437e-06
-5.5363e-08
-3.29074e-06
-5.26951e-08
-3.33604e-06
-4.97081e-08
-3.37938e-06
-4.64046e-08
-3.42059e-06
-4.27757e-08
-3.45951e-06
-3.88139e-08
-3.49592e-06
-3.45144e-08
-3.52963e-06
-2.9875e-08
-3.56041e-06
-2.48952e-08
-3.58806e-06
-1.95766e-08
-3.61237e-06
-1.39225e-08
-3.63313e-06
-7.93863e-09
-3.65014e-06
-1.63344e-09
-3.66319e-06
4.98185e-09
-3.67208e-06
1.18902e-08
-3.67662e-06
1.90693e-08
-3.67661e-06
2.64868e-08
-3.67185e-06
3.40963e-08
-3.66216e-06
4.18308e-08
-3.64739e-06
4.95962e-08
-3.62737e-06
5.72512e-08
-3.60197e-06
6.45886e-08
-3.57089e-06
7.1393e-08
-3.53345e-06
7.76848e-08
-3.48894e-06
8.36224e-08
-3.43699e-06
8.91485e-08
-3.37809e-06
9.44696e-08
-3.31211e-06
9.98346e-08
-3.23812e-06
1.05168e-07
-3.15616e-06
1.1024e-07
-3.06612e-06
1.14755e-07
-2.96728e-06
1.18285e-07
-2.85822e-06
1.20135e-07
-2.74084e-06
1.13142e-07
-2.63562e-06
9.58112e-08
-2.58665e-06
-2.56653e-07
-2.73281e-06
-1.55567e-05
-4.20596e-05
-1.59582e-05
-8.62279e-06
-1.27607e-05
-9.69772e-06
-1.13496e-05
-4.55243e-06
-9.32524e-06
-4.66575e-06
-9.19548e-06
-4.28976e-06
-9.24483e-06
-3.93688e-06
-9.71356e-06
-3.24433e-06
-1.0044e-05
-2.11454e-06
-5.11744e-07
-1.8773e-09
-1.1318e-06
-3.75327e-09
-1.13756e-06
-5.62978e-09
-1.13973e-06
-7.51812e-09
-1.14244e-06
-9.42488e-09
-1.14604e-06
-1.13499e-08
-1.15079e-06
-1.32873e-08
-1.1568e-06
-1.52322e-08
-1.16407e-06
-1.71826e-08
-1.17254e-06
-1.91393e-08
-1.18217e-06
-2.11041e-08
-1.1929e-06
-2.30788e-08
-1.20474e-06
-2.5065e-08
-1.21769e-06
-2.70639e-08
-1.23175e-06
-2.90764e-08
-1.24692e-06
-3.11033e-08
-1.26322e-06
-3.31452e-08
-1.28064e-06
-3.52025e-08
-1.2992e-06
-3.72754e-08
-1.3189e-06
-3.9364e-08
-1.33976e-06
-4.14682e-08
-1.36177e-06
-4.35878e-08
-1.38494e-06
-4.57223e-08
-1.40929e-06
-4.7871e-08
-1.43482e-06
-5.0033e-08
-1.46153e-06
-5.2207e-08
-1.48943e-06
-5.43916e-08
-1.51852e-06
-5.6585e-08
-1.54881e-06
-5.8785e-08
-1.5803e-06
-6.09891e-08
-1.61299e-06
-6.31942e-08
-1.64688e-06
-6.53966e-08
-1.68197e-06
-6.75924e-08
-1.71825e-06
-6.97767e-08
-1.75572e-06
-7.19443e-08
-1.79438e-06
-7.40905e-08
-1.83419e-06
-7.62113e-08
-1.87516e-06
-7.82968e-08
-1.91726e-06
-8.0331e-08
-1.96048e-06
-8.2298e-08
-2.00483e-06
-8.4187e-08
-2.05027e-06
-8.59909e-08
-2.09676e-06
-8.77033e-08
-2.14428e-06
-8.93184e-08
-2.19277e-06
-9.08306e-08
-2.24219e-06
-9.22338e-08
-2.29249e-06
-9.35209e-08
-2.34362e-06
-9.46843e-08
-2.39549e-06
-9.57153e-08
-2.44804e-06
-9.66045e-08
-2.5012e-06
-9.73415e-08
-2.55488e-06
-9.7915e-08
-2.60897e-06
-9.83129e-08
-2.6634e-06
-9.85221e-08
-2.71803e-06
-9.85284e-08
-2.77276e-06
-9.83165e-08
-2.82747e-06
-9.787e-08
-2.88201e-06
-9.7171e-08
-2.93625e-06
-9.62002e-08
-2.99004e-06
-9.49366e-08
-3.04322e-06
-9.33569e-08
-3.09562e-06
-9.14354e-08
-3.14708e-06
-8.91436e-08
-3.1974e-06
-8.64489e-08
-3.24639e-06
-8.33166e-08
-3.29387e-06
-7.97192e-08
-3.33963e-06
-7.56529e-08
-3.38344e-06
-7.11319e-08
-3.42511e-06
-6.61678e-08
-3.46447e-06
-6.07602e-08
-3.50133e-06
-5.49066e-08
-3.53548e-06
-4.86073e-08
-3.56671e-06
-4.18641e-08
-3.59481e-06
-3.46807e-08
-3.61955e-06
-2.70621e-08
-3.64075e-06
-1.90154e-08
-3.65819e-06
-1.05498e-08
-3.67166e-06
-1.67797e-09
-3.68096e-06
7.58623e-09
-3.68588e-06
1.7218e-08
-3.68624e-06
2.71852e-08
-3.68182e-06
3.74398e-08
-3.67242e-06
4.79105e-08
-3.65786e-06
5.84991e-08
-3.63796e-06
6.90519e-08
-3.61253e-06
7.9337e-08
-3.58117e-06
8.91465e-08
-3.54326e-06
9.86197e-08
-3.49841e-06
1.08224e-07
-3.4466e-06
1.1822e-07
-3.38808e-06
1.28681e-07
-3.32257e-06
1.39754e-07
-3.24919e-06
1.51395e-07
-3.1678e-06
1.63572e-07
-3.07829e-06
1.76527e-07
-2.98023e-06
1.91079e-07
-2.87277e-06
2.08625e-07
-2.75838e-06
2.30244e-07
-2.65724e-06
2.63658e-07
-2.62007e-06
6.38697e-08
-2.53302e-06
-1.57847e-05
-2.6211e-05
-1.58274e-05
-8.58007e-06
-1.13876e-05
-1.41375e-05
-1.00908e-05
-5.8493e-06
-8.20631e-06
-6.5502e-06
-8.15874e-06
-4.33733e-06
-8.14879e-06
-3.94682e-06
-8.55805e-06
-2.83506e-06
-8.81023e-06
-1.86235e-06
-5.94014e-07
-2.81625e-09
-1.12899e-06
-5.6152e-09
-1.13476e-06
-8.39971e-09
-1.13695e-06
-1.11912e-08
-1.13965e-06
-1.40027e-08
-1.14323e-06
-1.68356e-08
-1.14795e-06
-1.96859e-08
-1.15395e-06
-2.2549e-08
-1.16121e-06
-2.54235e-08
-1.16967e-06
-2.83099e-08
-1.17928e-06
-3.12098e-08
-1.19e-06
-3.4125e-08
-1.20183e-06
-3.70573e-08
-1.21476e-06
-4.00079e-08
-1.2288e-06
-4.29781e-08
-1.24395e-06
-4.59688e-08
-1.26023e-06
-4.89807e-08
-1.27763e-06
-5.20143e-08
-1.29617e-06
-5.50698e-08
-1.31585e-06
-5.81473e-08
-1.33668e-06
-6.12467e-08
-1.35867e-06
-6.43673e-08
-1.38182e-06
-6.75084e-08
-1.40615e-06
-7.0669e-08
-1.43166e-06
-7.38475e-08
-1.45835e-06
-7.70421e-08
-1.48623e-06
-8.02506e-08
-1.51531e-06
-8.34701e-08
-1.54559e-06
-8.66975e-08
-1.57707e-06
-8.99289e-08
-1.60976e-06
-9.31596e-08
-1.64365e-06
-9.63844e-08
-1.67874e-06
-9.9597e-08
-1.71504e-06
-1.0279e-07
-1.75253e-06
-1.05954e-07
-1.79121e-06
-1.09081e-07
-1.83106e-06
-1.12161e-07
-1.87208e-06
-1.15179e-07
-1.91424e-06
-1.18115e-07
-1.95755e-06
-1.20959e-07
-2.00198e-06
-1.23704e-07
-2.04752e-06
-1.26346e-07
-2.09412e-06
-1.28878e-07
-2.14174e-06
-1.31294e-07
-2.19035e-06
-1.33581e-07
-2.23991e-06
-1.35724e-07
-2.29035e-06
-1.37708e-07
-2.34163e-06
-1.39513e-07
-2.39368e-06
-1.41122e-07
-2.44643e-06
-1.42515e-07
-2.49981e-06
-1.43671e-07
-2.55372e-06
-1.44569e-07
-2.60808e-06
-1.45187e-07
-2.66278e-06
-1.45503e-07
-2.71771e-06
-1.45494e-07
-2.77277e-06
-1.45138e-07
-2.82782e-06
-1.44412e-07
-2.88274e-06
-1.43293e-07
-2.93737e-06
-1.41759e-07
-2.99157e-06
-1.39789e-07
-3.04519e-06
-1.37363e-07
-3.09805e-06
-1.34461e-07
-3.14998e-06
-1.31064e-07
-3.20079e-06
-1.27147e-07
-3.25031e-06
-1.22677e-07
-3.29834e-06
-1.17617e-07
-3.34469e-06
-1.11925e-07
-3.38914e-06
-1.05582e-07
-3.43145e-06
-9.86028e-08
-3.47145e-06
-9.10031e-08
-3.50893e-06
-8.27859e-08
-3.5437e-06
-7.39547e-08
-3.57554e-06
-6.45139e-08
-3.60425e-06
-5.4469e-08
-3.6296e-06
-4.38266e-08
-3.65139e-06
-3.25952e-08
-3.66942e-06
-2.07848e-08
-3.68347e-06
-8.40753e-09
-3.69333e-06
4.52048e-09
-3.69881e-06
1.79781e-08
-3.69969e-06
3.19347e-08
-3.69577e-06
4.63465e-08
-3.68683e-06
6.11489e-08
-3.67266e-06
7.62531e-08
-3.65307e-06
9.15336e-08
-3.62781e-06
1.06912e-07
-3.59655e-06
1.22714e-07
-3.55906e-06
1.39373e-07
-3.51507e-06
1.57049e-07
-3.46427e-06
1.75522e-07
-3.40656e-06
1.94572e-07
-3.34162e-06
2.14304e-07
-3.26892e-06
2.3473e-07
-3.18823e-06
2.55779e-07
-3.09934e-06
2.77372e-07
-3.00183e-06
2.99146e-07
-2.89455e-06
3.19814e-07
-2.77905e-06
3.33492e-07
-2.67092e-06
3.38449e-07
-2.62502e-06
3.59054e-07
-2.55363e-06
-7.181e-06
-1.86709e-05
-7.4666e-06
-8.29446e-06
-7.83579e-06
-1.37683e-05
-7.68735e-06
-5.99774e-06
-7.27605e-06
-6.96149e-06
-7.30412e-06
-4.30925e-06
-7.29902e-06
-3.95193e-06
-7.51803e-06
-2.61604e-06
-7.63935e-06
-1.74104e-06
-6.07471e-07
-3.82899e-09
-1.12516e-06
-7.65211e-09
-1.13094e-06
-1.14591e-08
-1.13314e-06
-1.5268e-08
-1.13584e-06
-1.90928e-08
-1.13941e-06
-2.29383e-08
-1.14411e-06
-2.68037e-08
-1.15008e-06
-3.06873e-08
-1.15732e-06
-3.45883e-08
-1.16577e-06
-3.85076e-08
-1.17536e-06
-4.24466e-08
-1.18606e-06
-4.64073e-08
-1.19787e-06
-5.03912e-08
-1.21078e-06
-5.44001e-08
-1.22479e-06
-5.84352e-08
-1.23992e-06
-6.24978e-08
-1.25616e-06
-6.65885e-08
-1.27354e-06
-7.07081e-08
-1.29205e-06
-7.48568e-08
-1.3117e-06
-7.90346e-08
-1.3325e-06
-8.32412e-08
-1.35446e-06
-8.74759e-08
-1.37759e-06
-9.17376e-08
-1.40189e-06
-9.60247e-08
-1.42737e-06
-1.00335e-07
-1.45404e-06
-1.04667e-07
-1.4819e-06
-1.09016e-07
-1.51096e-06
-1.13379e-07
-1.54122e-06
-1.17752e-07
-1.5727e-06
-1.22129e-07
-1.60538e-06
-1.26505e-07
-1.63927e-06
-1.30871e-07
-1.67438e-06
-1.35221e-07
-1.71069e-06
-1.39543e-07
-1.74821e-06
-1.43826e-07
-1.78693e-06
-1.48059e-07
-1.82683e-06
-1.52235e-07
-1.8679e-06
-1.56341e-07
-1.91013e-06
-1.60365e-07
-1.95352e-06
-1.64299e-07
-1.99805e-06
-1.68128e-07
-2.04369e-06
-1.71837e-07
-2.09041e-06
-1.75403e-07
-2.13818e-06
-1.78805e-07
-2.18695e-06
-1.82024e-07
-2.23669e-06
-1.85037e-07
-2.28734e-06
-1.87823e-07
-2.33885e-06
-1.90357e-07
-2.39115e-06
-1.92612e-07
-2.44418e-06
-1.94563e-07
-2.49786e-06
-1.96179e-07
-2.5521e-06
-1.97433e-07
-2.60682e-06
-1.98294e-07
-2.66192e-06
-1.98731e-07
-2.71728e-06
-1.98713e-07
-2.77279e-06
-1.98209e-07
-2.82833e-06
-1.97189e-07
-2.88376e-06
-1.9562e-07
-2.93894e-06
-1.93475e-07
-2.99372e-06
-1.90724e-07
-3.04794e-06
-1.87339e-07
-3.10143e-06
-1.83294e-07
-3.15402e-06
-1.78563e-07
-3.20552e-06
-1.73123e-07
-3.25575e-06
-1.66957e-07
-3.30451e-06
-1.60056e-07
-3.3516e-06
-1.52392e-07
-3.3968e-06
-1.43928e-07
-3.43992e-06
-1.34635e-07
-3.48074e-06
-1.24512e-07
-3.51906e-06
-1.13573e-07
-3.55464e-06
-1.01824e-07
-3.58729e-06
-8.92698e-08
-3.6168e-06
-7.59185e-08
-3.64295e-06
-6.17777e-08
-3.66553e-06
-4.6857e-08
-3.68434e-06
-3.1167e-08
-3.69916e-06
-1.47196e-08
-3.70978e-06
2.47189e-09
-3.716e-06
2.03887e-08
-3.71761e-06
3.90072e-08
-3.71439e-06
5.82951e-08
-3.70612e-06
7.81935e-08
-3.69256e-06
9.86145e-08
-3.67349e-06
1.19512e-07
-3.64871e-06
1.41212e-07
-3.61825e-06
1.64188e-07
-3.58204e-06
1.88406e-07
-3.53929e-06
2.13723e-07
-3.48959e-06
2.39997e-07
-3.43283e-06
2.67119e-07
-3.36874e-06
2.9512e-07
-3.29692e-06
3.23973e-07
-3.21708e-06
3.53566e-07
-3.12893e-06
3.83738e-07
-3.032e-06
4.14087e-07
-2.9249e-06
4.43881e-07
-2.80884e-06
4.70129e-07
-2.69717e-06
4.94168e-07
-2.64906e-06
5.3507e-07
-2.59453e-06
-3.332e-06
-1.48039e-05
-3.5947e-06
-8.03177e-06
-5.41087e-06
-1.19522e-05
-5.72964e-06
-5.67896e-06
-5.91127e-06
-6.77985e-06
-6.08531e-06
-4.13521e-06
-6.20701e-06
-3.83023e-06
-6.39682e-06
-2.42622e-06
-6.49821e-06
-1.63964e-06
-5.88507e-07
-4.86336e-09
-1.12029e-06
-9.73622e-09
-1.12606e-06
-1.46002e-08
-1.12828e-06
-1.94664e-08
-1.13098e-06
-2.43454e-08
-1.13453e-06
-2.92434e-08
-1.13921e-06
-3.41624e-08
-1.14516e-06
-3.91034e-08
-1.15238e-06
-4.40672e-08
-1.16081e-06
-4.90552e-08
-1.17037e-06
-5.40693e-08
-1.18105e-06
-5.91114e-08
-1.19283e-06
-6.41835e-08
-1.2057e-06
-6.92875e-08
-1.21969e-06
-7.44248e-08
-1.23478e-06
-7.95969e-08
-1.25099e-06
-8.48047e-08
-1.26833e-06
-9.00489e-08
-1.2868e-06
-9.533e-08
-1.30642e-06
-1.00648e-07
-1.32718e-06
-1.06002e-07
-1.34911e-06
-1.11391e-07
-1.3722e-06
-1.16815e-07
-1.39647e-06
-1.22271e-07
-1.42191e-06
-1.27756e-07
-1.44855e-06
-1.33267e-07
-1.47639e-06
-1.38801e-07
-1.50543e-06
-1.44353e-07
-1.53567e-06
-1.49917e-07
-1.56713e-06
-1.55486e-07
-1.59981e-06
-1.61054e-07
-1.6337e-06
-1.66611e-07
-1.66882e-06
-1.72147e-07
-1.70515e-06
-1.7765e-07
-1.74271e-06
-1.83109e-07
-1.78147e-06
-1.88517e-07
-1.82142e-06
-1.93865e-07
-1.86255e-06
-1.99136e-07
-1.90486e-06
-2.0431e-07
-1.94835e-06
-2.09368e-07
-1.99299e-06
-2.14291e-07
-2.03877e-06
-2.19057e-07
-2.08565e-06
-2.23641e-07
-2.13359e-06
-2.28018e-07
-2.18257e-06
-2.32161e-07
-2.23254e-06
-2.36042e-07
-2.28346e-06
-2.3963e-07
-2.33526e-06
-2.42895e-07
-2.38788e-06
-2.45803e-07
-2.44127e-06
-2.48319e-07
-2.49534e-06
-2.50408e-07
-2.55002e-06
-2.52032e-07
-2.6052e-06
-2.53152e-07
-2.6608e-06
-2.53729e-07
-2.7167e-06
-2.53725e-07
-2.77279e-06
-2.53099e-07
-2.82895e-06
-2.51812e-07
-2.88505e-06
-2.49824e-07
-2.94093e-06
-2.47099e-07
-2.99644e-06
-2.43598e-07
-3.05144e-06
-2.39289e-07
-3.10574e-06
-2.34137e-07
-3.15917e-06
-2.28114e-07
-3.21155e-06
-2.21192e-07
-3.26267e-06
-2.13351e-07
-3.31235e-06
-2.04572e-07
-3.36038e-06
-1.94836e-07
-3.40654e-06
-1.84125e-07
-3.45063e-06
-1.7241e-07
-3.49246e-06
-1.59654e-07
-3.53181e-06
-1.45857e-07
-3.56844e-06
-1.31037e-07
-3.60211e-06
-1.15205e-07
-3.63263e-06
-9.83702e-08
-3.65979e-06
-8.05414e-08
-3.68336e-06
-6.17296e-08
-3.70315e-06
-4.19465e-08
-3.71894e-06
-2.1203e-08
-3.73052e-06
4.90351e-10
-3.7377e-06
2.31142e-08
-3.74024e-06
4.66453e-08
-3.73792e-06
7.10467e-08
-3.73052e-06
9.6216e-08
-3.71773e-06
1.22049e-07
-3.69932e-06
1.48791e-07
-3.67545e-06
1.7702e-07
-3.64648e-06
2.06734e-07
-3.61175e-06
2.37774e-07
-3.57033e-06
2.70115e-07
-3.52193e-06
3.03695e-07
-3.46641e-06
3.38467e-07
-3.40351e-06
3.74434e-07
-3.33289e-06
4.11562e-07
-3.25421e-06
4.49757e-07
-3.16713e-06
4.88912e-07
-3.07115e-06
5.28766e-07
-2.96475e-06
5.69029e-07
-2.84911e-06
6.07485e-07
-2.73562e-06
6.44258e-07
-2.68584e-06
6.94789e-07
-2.64506e-06
-1.60028e-06
-1.25088e-05
-1.78312e-06
-7.84893e-06
-3.61762e-06
-1.01177e-05
-4.14802e-06
-5.14856e-06
-4.67632e-06
-6.25155e-06
-4.96111e-06
-3.85042e-06
-5.19254e-06
-3.5988e-06
-5.38312e-06
-2.23565e-06
-5.49588e-06
-1.52688e-06
-5.539e-07
-5.90676e-09
-1.11439e-06
-1.18348e-08
-1.12014e-06
-1.77615e-08
-1.12235e-06
-2.36929e-08
-1.12504e-06
-2.96367e-08
-1.12858e-06
-3.55989e-08
-1.13325e-06
-4.15836e-08
-1.13918e-06
-4.75934e-08
-1.14637e-06
-5.36308e-08
-1.15477e-06
-5.96981e-08
-1.1643e-06
-6.57976e-08
-1.17495e-06
-7.19317e-08
-1.18669e-06
-7.81027e-08
-1.19953e-06
-8.43127e-08
-1.21348e-06
-9.05635e-08
-1.22853e-06
-9.68568e-08
-1.2447e-06
-1.03194e-07
-1.26199e-06
-1.09575e-07
-1.28042e-06
-1.16001e-07
-1.29999e-06
-1.22472e-07
-1.32071e-06
-1.28988e-07
-1.34259e-06
-1.35547e-07
-1.36564e-06
-1.42147e-07
-1.38987e-06
-1.48787e-07
-1.41527e-06
-1.55463e-07
-1.44188e-06
-1.62172e-07
-1.46968e-06
-1.68909e-07
-1.49869e-06
-1.75667e-07
-1.52891e-06
-1.82442e-07
-1.56036e-06
-1.89224e-07
-1.59303e-06
-1.96005e-07
-1.62692e-06
-2.02775e-07
-1.66205e-06
-2.09523e-07
-1.69841e-06
-2.16234e-07
-1.73599e-06
-2.22899e-07
-1.7748e-06
-2.2951e-07
-1.81481e-06
-2.36049e-07
-1.85601e-06
-2.42492e-07
-1.89842e-06
-2.48817e-07
-1.94203e-06
-2.55002e-07
-1.98681e-06
-2.61023e-07
-2.03275e-06
-2.66853e-07
-2.07982e-06
-2.72463e-07
-2.12798e-06
-2.77823e-07
-2.17721e-06
-2.829e-07
-2.22747e-06
-2.8766e-07
-2.2787e-06
-2.92066e-07
-2.33085e-06
-2.96079e-07
-2.38387e-06
-2.9966e-07
-2.43769e-06
-3.02766e-07
-2.49224e-06
-3.05353e-07
-2.54743e-06
-3.07376e-07
-2.60318e-06
-3.08787e-07
-2.65939e-06
-3.0954e-07
-2.71595e-06
-3.09586e-07
-2.77275e-06
-3.08876e-07
-2.82966e-06
-3.07362e-07
-2.88656e-06
-3.04996e-07
-2.94329e-06
-3.01733e-07
-2.99971e-06
-2.97526e-07
-3.05565e-06
-2.92334e-07
-3.11093e-06
-2.86117e-07
-3.16539e-06
-2.78837e-07
-3.21883e-06
-2.70463e-07
-3.27105e-06
-2.60968e-07
-3.32185e-06
-2.50328e-07
-3.37102e-06
-2.38523e-07
-3.41834e-06
-2.2554e-07
-3.46361e-06
-2.11368e-07
-3.50663e-06
-1.95977e-07
-3.5472e-06
-1.7932e-07
-3.5851e-06
-1.61393e-07
-3.62004e-06
-1.42224e-07
-3.6518e-06
-1.2184e-07
-3.68017e-06
-1.00251e-07
-3.70495e-06
-7.74716e-08
-3.72593e-06
-5.35163e-08
-3.74289e-06
-2.83976e-08
-3.75564e-06
-2.12811e-09
-3.76397e-06
2.5263e-08
-3.76763e-06
5.37126e-08
-3.76637e-06
8.31432e-08
-3.75995e-06
1.13366e-07
-3.74795e-06
1.44565e-07
-3.73052e-06
1.77383e-07
-3.70827e-06
2.1203e-07
-3.68113e-06
2.48204e-07
-3.64793e-06
2.85895e-07
-3.60802e-06
3.25148e-07
-3.56118e-06
3.65962e-07
-3.50723e-06
4.08328e-07
-3.44588e-06
4.52254e-07
-3.37682e-06
4.97719e-07
-3.29967e-06
5.4466e-07
-3.21407e-06
5.93019e-07
-3.11951e-06
6.42614e-07
-3.01435e-06
6.93437e-07
-2.89993e-06
7.43602e-07
-2.78579e-06
7.93091e-07
-2.73533e-06
8.54747e-07
-2.70672e-06
-6.81433e-07
-1.09726e-05
-8.72417e-07
-7.65795e-06
-2.41293e-06
-8.57714e-06
-2.96494e-06
-4.59655e-06
-3.59628e-06
-5.62021e-06
-3.92914e-06
-3.51756e-06
-4.21536e-06
-3.31258e-06
-4.40581e-06
-2.0452e-06
-4.52351e-06
-1.40918e-06
-5.13141e-07
-6.95282e-09
-1.10743e-06
-1.39356e-08
-1.11315e-06
-2.09225e-08
-1.11536e-06
-2.7917e-08
-1.11805e-06
-3.49251e-08
-1.12158e-06
-4.19526e-08
-1.12622e-06
-4.90045e-08
-1.13213e-06
-5.6085e-08
-1.13929e-06
-6.31977e-08
-1.14766e-06
-7.03457e-08
-1.15716e-06
-7.75321e-08
-1.16776e-06
-8.47597e-08
-1.17947e-06
-9.20313e-08
-1.19226e-06
-9.93493e-08
-1.20616e-06
-1.06716e-07
-1.22116e-06
-1.14133e-07
-1.23728e-06
-1.21602e-07
-1.25452e-06
-1.29124e-07
-1.2729e-06
-1.36699e-07
-1.29242e-06
-1.44328e-07
-1.31308e-06
-1.5201e-07
-1.33491e-06
-1.59744e-07
-1.35791e-06
-1.67528e-07
-1.38208e-06
-1.75359e-07
-1.40744e-06
-1.83234e-07
-1.434e-06
-1.91148e-07
-1.46176e-06
-1.99097e-07
-1.49074e-06
-2.07073e-07
-1.52094e-06
-2.1507e-07
-1.55236e-06
-2.23078e-07
-1.58502e-06
-2.31087e-07
-1.61891e-06
-2.39086e-07
-1.65405e-06
-2.47061e-07
-1.69043e-06
-2.54999e-07
-1.72806e-06
-2.62889e-07
-1.76691e-06
-2.70717e-07
-1.80699e-06
-2.78458e-07
-1.84827e-06
-2.86086e-07
-1.89079e-06
-2.93577e-07
-1.93454e-06
-3.00906e-07
-1.97948e-06
-3.08043e-07
-2.02561e-06
-3.14959e-07
-2.0729e-06
-3.2162e-07
-2.12132e-06
-3.27989e-07
-2.17085e-06
-3.34029e-07
-2.22143e-06
-3.39699e-07
-2.27303e-06
-3.44955e-07
-2.32559e-06
-3.49754e-07
-2.37907e-06
-3.54046e-07
-2.4334e-06
-3.57782e-07
-2.4885e-06
-3.6091e-07
-2.5443e-06
-3.63376e-07
-2.60071e-06
-3.65124e-07
-2.65764e-06
-3.66099e-07
-2.71497e-06
-3.66242e-07
-2.77261e-06
-3.65495e-07
-2.83041e-06
-3.63802e-07
-2.88825e-06
-3.61105e-07
-2.94599e-06
-3.57349e-07
-3.00346e-06
-3.52479e-07
-3.06052e-06
-3.46444e-07
-3.11697e-06
-3.39197e-07
-3.17264e-06
-3.30692e-07
-3.22733e-06
-3.2089e-07
-3.28085e-06
-3.09758e-07
-3.33298e-06
-2.97265e-07
-3.38351e-06
-2.8339e-07
-3.43222e-06
-2.68117e-07
-3.47889e-06
-2.51441e-07
-3.52331e-06
-2.3337e-07
-3.56527e-06
-2.13879e-07
-3.60459e-06
-1.92904e-07
-3.64102e-06
-1.70431e-07
-3.67427e-06
-1.46492e-07
-3.70411e-06
-1.21118e-07
-3.73033e-06
-9.43423e-08
-3.75271e-06
-6.61917e-08
-3.77105e-06
-3.66875e-08
-3.78515e-06
-5.85924e-09
-3.7948e-06
2.6219e-08
-3.79971e-06
5.93818e-08
-3.79953e-06
9.34954e-08
-3.79407e-06
1.28724e-07
-3.78318e-06
1.65727e-07
-3.76752e-06
2.04904e-07
-3.74744e-06
2.45845e-07
-3.72207e-06
2.884e-07
-3.69048e-06
3.32697e-07
-3.65232e-06
3.78828e-07
-3.60732e-06
4.26846e-07
-3.55524e-06
4.76787e-07
-3.49582e-06
5.2868e-07
-3.42871e-06
5.82529e-07
-3.35352e-06
6.38304e-07
-3.26985e-06
6.95987e-07
-3.1772e-06
7.55446e-07
-3.07381e-06
8.16831e-07
-2.96131e-06
8.78361e-07
-2.84732e-06
9.3982e-07
-2.79679e-06
1.01165e-06
-2.77855e-06
-6.84694e-08
-9.89249e-06
-3.15749e-07
-7.41067e-06
-1.51703e-06
-7.37587e-06
-2.04302e-06
-4.07057e-06
-2.67182e-06
-4.99141e-06
-3.01972e-06
-3.16966e-06
-3.32952e-06
-3.00278e-06
-3.52279e-06
-1.85193e-06
-3.64816e-06
-1.28381e-06
-4.69237e-07
-7.99788e-09
-1.09944e-06
-1.60326e-08
-1.10512e-06
-2.40752e-08
-1.10732e-06
-3.21282e-08
-1.11e-06
-4.01966e-08
-1.11351e-06
-4.82863e-08
-1.11813e-06
-5.64031e-08
-1.12401e-06
-6.45523e-08
-1.13114e-06
-7.27383e-08
-1.13947e-06
-8.09653e-08
-1.14893e-06
-8.92368e-08
-1.15949e-06
-9.75564e-08
-1.17115e-06
-1.05927e-07
-1.18389e-06
-1.14352e-07
-1.19773e-06
-1.22834e-07
-1.21268e-06
-1.31374e-07
-1.22874e-06
-1.39975e-07
-1.24592e-06
-1.48638e-07
-1.26424e-06
-1.57364e-07
-1.28369e-06
-1.66152e-07
-1.3043e-06
-1.75003e-07
-1.32606e-06
-1.83915e-07
-1.349e-06
-1.92885e-07
-1.37311e-06
-2.01912e-07
-1.39842e-06
-2.10992e-07
-1.42492e-06
-2.20119e-07
-1.45264e-06
-2.29287e-07
-1.48157e-06
-2.3849e-07
-1.51174e-06
-2.47719e-07
-1.54313e-06
-2.56964e-07
-1.57577e-06
-2.66213e-07
-1.60966e-06
-2.75455e-07
-1.64481e-06
-2.84674e-07
-1.68121e-06
-2.93856e-07
-1.71887e-06
-3.02988e-07
-1.75778e-06
-3.1205e-07
-1.79792e-06
-3.2101e-07
-1.83931e-06
-3.29845e-07
-1.88196e-06
-3.38526e-07
-1.92585e-06
-3.47024e-07
-1.97098e-06
-3.55307e-07
-2.01733e-06
-3.6334e-07
-2.06487e-06
-3.71085e-07
-2.11358e-06
-3.785e-07
-2.16343e-06
-3.85542e-07
-2.21439e-06
-3.92164e-07
-2.26641e-06
-3.98316e-07
-2.31944e-06
-4.03946e-07
-2.37344e-06
-4.08999e-07
-2.42835e-06
-4.13416e-07
-2.48408e-06
-4.17138e-07
-2.54058e-06
-4.20102e-07
-2.59775e-06
-4.22244e-07
-2.6555e-06
-4.23497e-07
-2.71372e-06
-4.23794e-07
-2.77231e-06
-4.23069e-07
-2.83114e-06
-4.21253e-07
-2.89007e-06
-4.1828e-07
-2.94896e-06
-4.14084e-07
-3.00766e-06
-4.08601e-07
-3.066e-06
-4.01771e-07
-3.1238e-06
-3.93535e-07
-3.18087e-06
-3.83842e-07
-3.23703e-06
-3.72643e-07
-3.29205e-06
-3.59896e-07
-3.34573e-06
-3.45565e-07
-3.39784e-06
-3.29622e-07
-3.44816e-06
-3.12048e-07
-3.49646e-06
-2.92833e-07
-3.54252e-06
-2.71987e-07
-3.58612e-06
-2.49533e-07
-3.62704e-06
-2.25471e-07
-3.66508e-06
-1.99758e-07
-3.69999e-06
-1.72342e-07
-3.73153e-06
-1.43247e-07
-3.75942e-06
-1.12521e-07
-3.78343e-06
-8.02173e-08
-3.80335e-06
-4.6409e-08
-3.81896e-06
-1.11974e-08
-3.83001e-06
2.52888e-08
-3.83619e-06
6.28946e-08
-3.83714e-06
1.01757e-07
-3.83293e-06
1.42687e-07
-3.82411e-06
1.86018e-07
-3.81085e-06
2.31333e-07
-3.79276e-06
2.78339e-07
-3.76907e-06
3.27167e-07
-3.73931e-06
3.77981e-07
-3.70313e-06
4.30917e-07
-3.66025e-06
4.86077e-07
-3.6104e-06
5.4354e-07
-3.55328e-06
6.0337e-07
-3.48854e-06
6.65607e-07
-3.41576e-06
7.30257e-07
-3.3345e-06
7.97337e-07
-3.24428e-06
8.66749e-07
-3.14322e-06
9.38726e-07
-3.03329e-06
1.01155e-06
-2.92014e-06
1.08474e-06
-2.86997e-06
1.16825e-06
-2.86207e-06
3.79623e-07
-9.10386e-06
1.55965e-07
-7.18702e-06
-8.33385e-07
-6.38653e-06
-1.29515e-06
-3.60881e-06
-1.88693e-06
-4.39964e-06
-2.22464e-06
-2.83196e-06
-2.53443e-06
-2.69299e-06
-2.72357e-06
-1.66279e-06
-2.84914e-06
-1.15824e-06
-4.25139e-07
-9.03975e-09
-1.0904e-06
-1.81224e-08
-1.09604e-06
-2.72156e-08
-1.09823e-06
-3.63215e-08
-1.10089e-06
-4.54452e-08
-1.10438e-06
-5.45926e-08
-1.10899e-06
-6.37703e-08
-1.11483e-06
-7.29844e-08
-1.12193e-06
-8.22404e-08
-1.13021e-06
-9.1543e-08
-1.13963e-06
-1.00897e-07
-1.15014e-06
-1.10305e-07
-1.16174e-06
-1.19773e-07
-1.17442e-06
-1.29302e-07
-1.1882e-06
-1.38897e-07
-1.20309e-06
-1.48559e-07
-1.21908e-06
-1.58292e-07
-1.23619e-06
-1.68095e-07
-1.25443e-06
-1.77971e-07
-1.27381e-06
-1.8792e-07
-1.29435e-06
-1.97941e-07
-1.31604e-06
-2.08033e-07
-1.3389e-06
-2.18194e-07
-1.36295e-06
-2.28421e-07
-1.38819e-06
-2.3871e-07
-1.41463e-06
-2.49055e-07
-1.44229e-06
-2.59451e-07
-1.47118e-06
-2.69889e-07
-1.5013e-06
-2.8036e-07
-1.53266e-06
-2.90854e-07
-1.56528e-06
-3.01357e-07
-1.59916e-06
-3.11857e-07
-1.63431e-06
-3.22336e-07
-1.67073e-06
-3.3278e-07
-1.70843e-06
-3.43173e-07
-1.74739e-06
-3.53488e-07
-1.78761e-06
-3.63692e-07
-1.82911e-06
-3.73759e-07
-1.87189e-06
-3.8366e-07
-1.91595e-06
-3.9336e-07
-1.96128e-06
-4.02824e-07
-2.00786e-06
-4.12013e-07
-2.05568e-06
-4.20882e-07
-2.10471e-06
-4.29387e-07
-2.15493e-06
-4.37478e-07
-2.2063e-06
-4.45101e-07
-2.25878e-06
-4.52201e-07
-2.31234e-06
-4.58718e-07
-2.36693e-06
-4.64589e-07
-2.42248e-06
-4.69748e-07
-2.47892e-06
-4.74126e-07
-2.5362e-06
-4.77653e-07
-2.59422e-06
-4.80253e-07
-2.6529e-06
-4.81852e-07
-2.71212e-06
-4.82371e-07
-2.77179e-06
-4.81735e-07
-2.83177e-06
-4.79864e-07
-2.89194e-06
-4.7668e-07
-2.95215e-06
-4.72108e-07
-3.01223e-06
-4.66074e-07
-3.07203e-06
-4.58505e-07
-3.13137e-06
-4.49335e-07
-3.19005e-06
-4.38501e-07
-3.24786e-06
-4.25946e-07
-3.3046e-06
-4.1162e-07
-3.36005e-06
-3.9548e-07
-3.41398e-06
-3.77491e-07
-3.46615e-06
-3.57629e-07
-3.51632e-06
-3.35879e-07
-3.56427e-06
-3.12243e-07
-3.60976e-06
-2.86737e-07
-3.65255e-06
-2.59396e-07
-3.69242e-06
-2.30243e-07
-3.72914e-06
-1.99284e-07
-3.76248e-06
-1.66524e-07
-3.79218e-06
-1.31982e-07
-3.81798e-06
-9.5713e-08
-3.83962e-06
-5.78477e-08
-3.85682e-06
-1.85647e-08
-3.86929e-06
2.21059e-08
-3.87686e-06
6.45428e-08
-3.87958e-06
1.09161e-07
-3.87755e-06
1.56157e-07
-3.87111e-06
2.05304e-07
-3.86e-06
2.56308e-07
-3.84376e-06
3.0921e-07
-3.82197e-06
3.64181e-07
-3.79428e-06
4.21402e-07
-3.76035e-06
4.81042e-07
-3.71989e-06
5.43249e-07
-3.67261e-06
6.08151e-07
-3.61818e-06
6.75858e-07
-3.55624e-06
7.46453e-07
-3.48636e-06
8.19985e-07
-3.40803e-06
8.96508e-07
-3.3208e-06
9.75943e-07
-3.22265e-06
1.05856e-06
-3.11591e-06
1.14268e-06
-3.00426e-06
1.2275e-06
-2.9548e-06
1.32235e-06
-2.95692e-06
7.37232e-07
-8.51874e-06
5.62116e-07
-7.01191e-06
-2.76054e-07
-5.54837e-06
-6.82642e-07
-3.20222e-06
-1.21663e-06
-3.86566e-06
-1.53539e-06
-2.5132e-06
-1.82918e-06
-2.3992e-06
-2.01097e-06
-1.48101e-06
-2.13185e-06
-1.03736e-06
-3.81431e-07
-1.0077e-08
-1.08032e-06
-2.02024e-08
-1.08591e-06
-3.03406e-08
-1.08809e-06
-4.04937e-08
-1.09074e-06
-5.06669e-08
-1.09421e-06
-6.08667e-08
-1.09879e-06
-7.11003e-08
-1.1046e-06
-8.13748e-08
-1.11166e-06
-9.16963e-08
-1.11989e-06
-1.0207e-07
-1.12925e-06
-1.12502e-07
-1.13971e-06
-1.22996e-07
-1.15124e-06
-1.33557e-07
-1.16386e-06
-1.44188e-07
-1.17757e-06
-1.54894e-07
-1.19238e-06
-1.65676e-07
-1.2083e-06
-1.76538e-07
-1.22533e-06
-1.87482e-07
-1.24349e-06
-1.98508e-07
-1.26279e-06
-2.09617e-07
-1.28324e-06
-2.2081e-07
-1.30485e-06
-2.32084e-07
-1.32763e-06
-2.43439e-07
-1.3516e-06
-2.5487e-07
-1.37676e-06
-2.66373e-07
-1.40313e-06
-2.77944e-07
-1.43072e-06
-2.89575e-07
-1.45955e-06
-3.01258e-07
-1.48961e-06
-3.12982e-07
-1.52094e-06
-3.24737e-07
-1.55353e-06
-3.36509e-07
-1.58739e-06
-3.48282e-07
-1.62254e-06
-3.60039e-07
-1.65898e-06
-3.71766e-07
-1.6967e-06
-3.8344e-07
-1.73572e-06
-3.95032e-07
-1.77602e-06
-4.06508e-07
-1.81763e-06
-4.17839e-07
-1.86056e-06
-4.28992e-07
-1.9048e-06
-4.39931e-07
-1.95034e-06
-4.50616e-07
-1.99718e-06
-4.61002e-07
-2.04529e-06
-4.71043e-07
-2.09467e-06
-4.80688e-07
-2.14528e-06
-4.8988e-07
-2.1971e-06
-4.98561e-07
-2.2501e-06
-5.06669e-07
-2.30424e-06
-5.14136e-07
-2.35946e-06
-5.20891e-07
-2.41572e-06
-5.26861e-07
-2.47296e-06
-5.31967e-07
-2.5311e-06
-5.3613e-07
-2.59006e-06
-5.39265e-07
-2.64976e-06
-5.41287e-07
-2.7101e-06
-5.42107e-07
-2.77097e-06
-5.41638e-07
-2.83224e-06
-5.3979e-07
-2.89379e-06
-5.36473e-07
-2.95546e-06
-5.316e-07
-3.01711e-06
-5.25086e-07
-3.07855e-06
-5.16849e-07
-3.13961e-06
-5.06809e-07
-3.20009e-06
-4.94895e-07
-3.25978e-06
-4.8104e-07
-3.31846e-06
-4.65186e-07
-3.37591e-06
-4.47283e-07
-3.43188e-06
-4.2729e-07
-3.48614e-06
-4.05179e-07
-3.53843e-06
-3.80934e-07
-3.58852e-06
-3.54555e-07
-3.63613e-06
-3.26057e-07
-3.68105e-06
-2.95472e-07
-3.723e-06
-2.62848e-07
-3.76177e-06
-2.28248e-07
-3.79708e-06
-1.91727e-07
-3.8287e-06
-1.53345e-07
-3.85636e-06
-1.13176e-07
-3.87979e-06
-7.12699e-08
-3.89873e-06
-2.75941e-08
-3.91297e-06
1.80014e-08
-3.92246e-06
6.57913e-08
-3.92737e-06
1.15985e-07
-3.92774e-06
1.68418e-07
-3.92354e-06
2.22907e-07
-3.91449e-06
2.79434e-07
-3.90029e-06
3.38107e-07
-3.88065e-06
3.99093e-07
-3.85527e-06
4.62591e-07
-3.82385e-06
5.28806e-07
-3.7861e-06
5.97932e-07
-3.74174e-06
6.70155e-07
-3.69041e-06
7.45642e-07
-3.63173e-06
8.2453e-07
-3.56524e-06
9.0692e-07
-3.49042e-06
9.9291e-07
-3.40679e-06
1.08244e-06
-3.31219e-06
1.17582e-06
-3.20929e-06
1.2714e-06
-3.09984e-06
1.36807e-06
-3.05147e-06
1.47486e-06
-3.0637e-06
1.03802e-06
-8.0819e-06
8.83938e-07
-6.85783e-06
1.87903e-07
-4.85234e-06
-1.72471e-07
-2.84185e-06
-6.42626e-07
-3.39551e-06
-9.36945e-07
-2.21888e-06
-1.20698e-06
-2.12916e-06
-1.37926e-06
-1.30874e-06
-1.49186e-06
-9.24753e-07
-3.38389e-07
-1.11085e-08
-1.06921e-06
-2.22708e-08
-1.07475e-06
-3.34477e-08
-1.07691e-06
-4.46417e-08
-1.07954e-06
-5.58582e-08
-1.083e-06
-6.71044e-08
-1.08754e-06
-7.83883e-08
-1.09332e-06
-8.97176e-08
-1.10033e-06
-1.011e-07
-1.10851e-06
-1.1254e-07
-1.11781e-06
-1.24046e-07
-1.1282e-06
-1.35621e-07
-1.13967e-06
-1.47271e-07
-1.15221e-06
-1.59001e-07
-1.16584e-06
-1.70814e-07
-1.18057e-06
-1.82714e-07
-1.1964e-06
-1.94704e-07
-1.21334e-06
-2.06786e-07
-1.23141e-06
-2.18961e-07
-1.25061e-06
-2.31232e-07
-1.27097e-06
-2.43597e-07
-1.29248e-06
-2.56056e-07
-1.31517e-06
-2.68607e-07
-1.33904e-06
-2.81247e-07
-1.36412e-06
-2.93971e-07
-1.39041e-06
-3.06774e-07
-1.41792e-06
-3.19648e-07
-1.44667e-06
-3.32586e-07
-1.47668e-06
-3.45575e-07
-1.50795e-06
-3.58605e-07
-1.5405e-06
-3.7166e-07
-1.57433e-06
-3.84724e-07
-1.60947e-06
-3.9778e-07
-1.64592e-06
-4.10812e-07
-1.68367e-06
-4.23792e-07
-1.72274e-06
-4.36686e-07
-1.76312e-06
-4.49463e-07
-1.80486e-06
-4.62091e-07
-1.84793e-06
-4.74534e-07
-1.89236e-06
-4.86753e-07
-1.93813e-06
-4.98702e-07