/*--------------------------------*- C++ -*----------------------------------*\
| =========                 |                                                 |
| \\      /  F ield         | OpenFOAM: The Open Source CFD Toolbox           |
|  \\    /   O peration     | Version:  v2106                                 |
|   \\  /    A nd           | Website:  www.openfoam.com                      |
|    \\/     M anipulation  |                                                 |
\*---------------------------------------------------------------------------*/
FoamFile
{
    version     2.0;
    format      ascii;
    arch        "LSB;label=32;scalar=64";
    class       volVectorField;
    location    "0.6";
    object      U;
}
// * * * * * * * * * * * * * * * * * * * * * * * * * * * * * * * * * * * * * //

dimensions      [0 1 -1 0 0 0 0];

internalField   nonuniform List<vector> 
29678
(
(-0.00945665 8.70709e-25 -4.38719e-06)
(-0.00950569 7.03714e-24 -1.42062e-05)
(-0.00952411 -1.69996e-22 -2.51114e-05)
(-0.00954668 1.079e-20 -3.58369e-05)
(-0.00957682 5.40845e-20 -4.64431e-05)
(-0.00961656 4.77522e-20 -5.70782e-05)
(-0.0096668 4.46667e-20 -6.77784e-05)
(-0.0097275 5.3527e-20 -7.85239e-05)
(-0.00979819 -1.06622e-19 -8.92977e-05)
(-0.00987845 4.07779e-20 -0.000100098)
(-0.00996803 -9.89189e-20 -0.000110936)
(-0.0100669 4.38224e-20 -0.000121821)
(-0.0101749 -1.01245e-19 -0.000132767)
(-0.0102922 4.3042e-20 -0.000143781)
(-0.0104189 -1.04333e-19 -0.000154871)
(-0.0105549 4.51368e-20 -0.000166043)
(-0.0107003 -1.09453e-19 -0.000177301)
(-0.0108551 -1.13238e-19 -0.000188648)
(-0.0110196 5.05017e-20 -0.000200088)
(-0.0111936 -1.28986e-19 -0.000211622)
(-0.0113772 -1.29037e-19 -0.000223249)
(-0.0115706 -1.17483e-19 -0.00023497)
(-0.0117737 -5.64386e-21 -0.000246784)
(-0.0119866 -1.09237e-21 -0.000258687)
(-0.0122094 -6.64538e-20 -0.000270677)
(-0.012442 -1.04506e-20 -0.000282747)
(-0.0126846 -7.10214e-20 -0.00029489)
(-0.0129372 6.60409e-20 -0.0003071)
(-0.0131997 -1.27166e-19 -0.000319365)
(-0.0134722 -1.56965e-19 -0.000331673)
(-0.0137546 -1.55337e-19 -0.00034401)
(-0.014047 -6.35148e-21 -0.000356358)
(-0.0143493 7.85584e-21 -0.000368699)
(-0.0146615 7.56696e-20 -0.000381008)
(-0.0149833 8.65211e-20 -0.000393263)
(-0.0153149 8.32517e-20 -0.000405436)
(-0.0156559 8.58262e-20 -0.000417504)
(-0.0160063 8.98336e-20 -0.000429445)
(-0.016366 8.59051e-20 -0.000441235)
(-0.0167347 9.04458e-20 -0.000452826)
(-0.0171124 8.30644e-20 -0.000464143)
(-0.0174987 1.06225e-19 -0.000475106)
(-0.0178934 8.24008e-20 -0.000485629)
(-0.0182962 7.86336e-20 -0.000495581)
(-0.0187065 9.85494e-20 -0.000504931)
(-0.0191241 -9.69643e-20 -0.000513628)
(-0.0195485 1.02621e-19 -0.000521632)
(-0.019979 1.20167e-19 -0.000528905)
(-0.020415 1.08097e-19 -0.000535407)
(-0.020856 1.09955e-19 -0.000541091)
(-0.0213011 1.08435e-19 -0.000545908)
(-0.0217496 1.34101e-19 -0.000549799)
(-0.0222006 1.50595e-19 -0.0005527)
(-0.0226533 1.16789e-19 -0.000554538)
(-0.0231065 8.02806e-21 -0.00055523)
(-0.0235592 1.28981e-19 -0.000554684)
(-0.0240104 1.18776e-19 -0.000552796)
(-0.0244588 1.31867e-19 -0.000549446)
(-0.0249031 1.20378e-19 -0.000544503)
(-0.025342 1.31017e-19 -0.000537815)
(-0.0257741 1.36316e-19 -0.000529211)
(-0.0261978 1.45956e-19 -0.000518501)
(-0.0266116 1.51656e-19 -0.000505487)
(-0.027014 1.40967e-19 -0.00049)
(-0.0274034 1.36732e-19 -0.000471791)
(-0.0277782 1.5577e-19 -0.000450897)
(-0.0281367 1.49574e-20 -0.000427344)
(-0.0284775 1.33878e-19 -0.000401145)
(-0.0287991 -2.93231e-19 -0.000372277)
(-0.0290999 1.15866e-19 -0.000340661)
(-0.0293779 -1.36387e-19 -0.000306247)
(-0.0296316 1.24669e-19 -0.000269006)
(-0.0298592 -1.55461e-19 -0.000228926)
(-0.030059 1.2411e-19 -0.000186013)
(-0.0302292 -1.58496e-19 -0.000140285)
(-0.0303682 -1.65858e-19 -9.17805e-05)
(-0.0304743 1.40211e-19 -4.05549e-05)
(-0.0305458 -1.43508e-19 1.33097e-05)
(-0.0305812 1.35616e-19 6.96934e-05)
(-0.0305789 -3.06716e-19 0.000128444)
(-0.0305372 1.37756e-19 0.00018934)
(-0.0304549 -1.43812e-19 0.000252064)
(-0.0303308 1.37658e-19 0.000316159)
(-0.0301637 -1.67862e-19 0.000380949)
(-0.029953 -1.48835e-19 0.000445499)
(-0.0296965 1.31913e-19 0.000508548)
(-0.029389 -1.53339e-19 0.000568098)
(-0.0290223 1.44886e-19 0.000622874)
(-0.0285922 -1.16185e-19 0.000672955)
(-0.0281048 9.25114e-20 0.000719779)
(-0.0275567 -2.55947e-19 0.000765095)
(-0.0269397 -4.81997e-21 0.000809695)
(-0.026257 8.20172e-20 0.000854607)
(-0.0255088 -2.24006e-19 0.000898438)
(-0.0246898 7.79522e-20 0.000939022)
(-0.0237891 -1.92335e-19 0.000975525)
(-0.0228249 4.96725e-20 0.000985066)
(-0.0220213 -1.2801e-19 0.00104241)
(-0.0216997 5.57015e-20 0.000778128)
(-0.0257049 2.73276e-21 0.000907579)
(-0.476783 -1.57327e-19 -0.00601627)
(-0.07501 -4.8512e-20 -0.235367)
(-0.0541363 -1.31074e-19 -0.0525751)
(-0.0261859 5.41147e-20 -0.144921)
(-0.0220516 -6.30903e-20 -0.0551191)
(-0.0346644 -7.30358e-20 -0.0929042)
(-0.0332089 -1.86731e-19 -0.0659019)
(-0.0309234 3.12817e-19 -0.0840711)
(-0.0203592 1.36757e-19 -0.0812386)
(-0.0030455 -1.78302e-19 -0.0825148)
(-0.0094399 5.1208e-24 -7.75865e-06)
(-0.00948833 9.85815e-23 -2.34131e-05)
(-0.00950667 1.89436e-21 -3.92208e-05)
(-0.00952936 4.52863e-20 -5.48191e-05)
(-0.00955945 2.12861e-21 -7.05525e-05)
(-0.00959906 2.81706e-22 -8.65077e-05)
(-0.00964919 1.64698e-21 -0.000102621)
(-0.00970983 4.78957e-20 -0.000118812)
(-0.00978047 -4.76732e-20 -0.000135047)
(-0.00986067 -4.23133e-21 -0.000151325)
(-0.00995019 -4.41056e-20 -0.000167662)
(-0.0100489 4.40373e-20 -0.000184073)
(-0.0101569 -4.78431e-20 -0.000200575)
(-0.0102741 -4.40153e-21 -0.000217177)
(-0.0104006 -4.67127e-20 -0.000233889)
(-0.0105364 4.57797e-20 -0.000250719)
(-0.0106817 -5.08904e-20 -0.000267671)
(-0.0108364 -4.70939e-20 -0.00028475)
(-0.0110007 9.52074e-20 -0.000301959)
(-0.0111746 -5.73885e-20 -0.000319299)
(-0.0113581 -5.91931e-20 -0.000336769)
(-0.0115513 -5.73095e-20 -0.000354369)
(-0.0117542 -2.19492e-21 -0.000372095)
(-0.011967 -5.77817e-20 -0.000389943)
(-0.0121896 -7.18269e-21 -0.000407906)
(-0.0124222 -1.13363e-19 -0.000425975)
(-0.0126647 5.05084e-20 -0.000444139)
(-0.0129171 1.18613e-19 -0.000462385)
(-0.0131796 -5.796e-20 -0.000480695)
(-0.013452 -7.38507e-20 -0.00049905)
(-0.0137344 -7.34877e-20 -0.000517427)
(-0.0140268 -3.53855e-21 -0.000535799)
(-0.0143292 -1.30504e-19 -0.000554133)
(-0.0146414 -5.32799e-21 -0.000572392)
(-0.0149634 7.2994e-20 -0.000590535)
(-0.0152951 2.73828e-21 -0.000608519)
(-0.0156363 3.43324e-21 -0.00062631)
(-0.015987 3.1222e-21 -0.000643884)
(-0.0163471 -3.09278e-21 -0.000661095)
(-0.0167164 -1.42347e-21 -0.000677766)
(-0.0170948 3.84592e-21 -0.00069384)
(-0.0174819 9.07829e-20 -0.00070924)
(-0.0178773 3.14803e-21 -0.000723906)
(-0.0182808 -1.26774e-20 -0.000737779)
(-0.0186921 -8.42722e-21 -0.000750822)
(-0.0191107 -1.85444e-19 -0.000762983)
(-0.0195362 2.1951e-20 -0.000774208)
(-0.0199678 4.52157e-21 -0.000784435)
(-0.0204052 9.56915e-20 -0.000793596)
(-0.0208475 3.22912e-21 -0.000801617)
(-0.021294 5.92257e-21 -0.000808414)
(-0.0217441 1.29471e-19 -0.000813898)
(-0.0221968 1.44203e-19 -0.000817972)
(-0.0226512 -1.02383e-19 -0.00082053)
(-0.0231064 -2.0523e-21 -0.000821458)
(-0.0235612 1.24778e-19 -0.000820634)
(-0.0240147 -1.06405e-19 -0.000817927)
(-0.0244655 9.8914e-21 -0.000813193)
(-0.0249125 4.37054e-21 -0.000806279)
(-0.0253543 1.1707e-19 -0.000797015)
(-0.0257895 4.68335e-21 -0.000785219)
(-0.0262167 3.44429e-20 -0.000770685)
(-0.0266342 4.02363e-21 -0.000753186)
(-0.0270404 -4.85614e-21 -0.00073248)
(-0.0274339 -5.79052e-21 -0.000708267)
(-0.0278132 1.34003e-19 -0.000680306)
(-0.0281763 8.25978e-21 -0.000648459)
(-0.0285216 -1.56953e-20 -0.000612541)
(-0.0288476 -2.91598e-19 -0.000573005)
(-0.0291527 -1.19182e-20 -0.000529803)
(-0.0294353 -1.55519e-22 -0.000482888)
(-0.0296935 -1.10348e-20 -0.000432253)
(-0.0299256 -2.93406e-19 -0.000377908)
(-0.0301298 -1.46804e-20 -0.000319876)
(-0.0303044 -1.20167e-20 -0.00025819)
(-0.0304478 -2.86933e-19 -0.000192903)
(-0.0305581 -1.28816e-20 -0.000124082)
(-0.0306337 -3.57809e-22 -5.1806e-05)
(-0.030673 -1.26623e-20 2.38026e-05)
(-0.0306742 -2.92261e-19 0.000102581)
(-0.0306357 -1.20846e-20 0.000184326)
(-0.030556 -5.09424e-22 0.000268707)
(-0.0304335 -1.42324e-20 0.000355224)
(-0.0302669 -2.74222e-19 0.000443136)
(-0.0300547 -1.44133e-20 0.000531663)
(-0.0297932 -1.48515e-20 0.000619751)
(-0.0294775 -2.71773e-19 0.000703691)
(-0.0291057 -1.04389e-20 0.000782485)
(-0.0286742 1.41556e-21 0.000861377)
(-0.0281823 -1.34971e-20 0.000941588)
(-0.0276318 -2.93208e-19 0.00102787)
(-0.0270167 -2.39395e-20 0.00111784)
(-0.0263354 -7.38731e-21 0.00121259)
(-0.0255865 -2.58599e-19 0.00131181)
(-0.0247652 -2.16982e-20 0.00141631)
(-0.023862 -2.40187e-19 0.00152898)
(-0.0228914 -2.90845e-20 0.00166265)
(-0.0220159 -2.50093e-19 0.00183772)
(-0.0215768 -1.04912e-20 0.00193405)
(-0.0204463 7.92613e-20 0.00255997)
(-0.252181 -8.31347e-20 -0.00180558)
(-0.0738476 -1.77321e-19 -0.242317)
(-0.110766 -2.21126e-19 -0.0439719)
(-0.0488062 -5.03244e-21 -0.132018)
(-0.0539282 7.04822e-20 -0.0460857)
(-0.0367928 -1.12923e-19 -0.0840301)
(-0.0330002 -2.53765e-20 -0.0570431)
(-0.0241267 8.7092e-20 -0.0749671)
(-0.0156302 -3.58263e-19 -0.0708205)
(-0.00511376 1.06809e-19 -0.0727754)
(-0.0094205 -7.61215e-25 -1.16562e-05)
(-0.00946924 -4.64238e-24 -3.51822e-05)
(-0.00948783 1.71135e-22 -5.86712e-05)
(-0.00951051 1.92119e-21 -8.16948e-05)
(-0.00954047 -4.89482e-20 -0.000104904)
(-0.00957993 -4.2767e-20 -0.000128406)
(-0.00962995 -4.00882e-20 -0.000152115)
(-0.00969051 -4.26684e-20 -0.000175943)
(-0.0097611 9.97373e-20 -0.000199859)
(-0.00984123 -3.80953e-20 -0.000223863)
(-0.00993066 8.52539e-20 -0.000247969)
(-0.0100293 -3.0178e-20 -0.000272196)
(-0.0101371 8.98912e-20 -0.000296557)
(-0.0102542 -4.08328e-20 -0.000321067)
(-0.0103806 9.68291e-20 -0.000345735)
(-0.0105163 -3.96389e-20 -0.00037057)
(-0.0106614 1.00741e-19 -0.000395579)
(-0.010816 1.01233e-19 -0.000420768)
(-0.0109801 -3.12317e-20 -0.000446139)
(-0.0111538 1.10116e-19 -0.000471693)
(-0.0113372 1.05711e-19 -0.000497431)
(-0.0115302 1.02498e-19 -0.000523348)
(-0.0117331 4.29114e-21 -0.00054944)
(-0.0119457 -7.14702e-21 -0.000575699)
(-0.0121682 5.75576e-20 -0.000602115)
(-0.0124006 7.03155e-21 -0.000628674)
(-0.012643 6.79547e-20 -0.000655358)
(-0.0128954 -5.55385e-20 -0.000682146)
(-0.0131578 1.16083e-19 -0.000709015)
(-0.0134302 1.40309e-19 -0.000735934)
(-0.0137126 1.29603e-19 -0.000762868)
(-0.014005 1.74727e-21 -0.000789776)
(-0.0143075 -3.86434e-21 -0.000816611)
(-0.0146198 -6.87113e-20 -0.000843314)
(-0.014942 -7.36384e-20 -0.000869818)
(-0.0152739 -7.94937e-20 -0.000896051)
(-0.0156155 -7.81673e-20 -0.000921993)
(-0.0159667 -7.51059e-20 -0.000947421)
(-0.0163271 -8.52072e-20 -0.000972229)
(-0.0166968 -7.83982e-20 -0.00099632)
(-0.0170757 -7.24982e-20 -0.00101962)
(-0.0174635 -8.78277e-20 -0.00104207)
(-0.0178599 -8.48736e-20 -0.00106361)
(-0.0182645 -8.98627e-20 -0.00108426)
(-0.0186769 -9.86546e-20 -0.00110389)
(-0.0190966 6.25074e-20 -0.00112239)
(-0.0195232 -8.32517e-20 -0.00113962)
(-0.0199561 -1.2095e-19 -0.00115544)
(-0.0203948 -1.19683e-19 -0.00116971)
(-0.0208385 -1.24759e-19 -0.00118226)
(-0.0212866 -1.0234e-19 -0.00119292)
(-0.0217384 -9.96674e-20 -0.00120152)
(-0.0221928 -1.05197e-19 -0.00120788)
(-0.0226492 -1.28751e-19 -0.00121182)
(-0.0231064 -3.4943e-21 -0.00121314)
(-0.0235635 -1.01296e-19 -0.00121167)
(-0.0240193 -1.38711e-19 -0.00120721)
(-0.0244727 -9.63161e-20 -0.00119957)
(-0.0249224 -1.23055e-19 -0.00118857)
(-0.0253671 -1.20873e-19 -0.00117402)
(-0.0258054 -1.47269e-19 -0.00115575)
(-0.0262359 -1.28603e-19 -0.00113359)
(-0.0266571 -1.46683e-19 -0.00110737)
(-0.0270674 -1.48484e-19 -0.0010769)
(-0.0274651 -1.22971e-19 -0.00104207)
(-0.0278484 -1.10517e-19 -0.00100247)
(-0.0282154 -9.03719e-21 -0.000957795)
(-0.0285648 -1.26156e-19 -0.000907778)
(-0.0288953 2.52088e-19 -0.000852099)
(-0.0292047 -1.04981e-19 -0.000791319)
(-0.0294914 1.24655e-19 -0.000725424)
(-0.0297538 -1.16314e-19 -0.000654391)
(-0.0299901 1.29913e-19 -0.000578255)
(-0.0301985 -1.12149e-19 -0.000497058)
(-0.0303772 1.42607e-19 -0.000410849)
(-0.0305246 1.43584e-19 -0.000319692)
(-0.0306388 -1.27788e-19 -0.000223664)
(-0.0307183 1.31283e-19 -0.000122853)
(-0.0307613 -1.25624e-19 -1.7371e-05)
(-0.030766 2.67293e-19 9.26223e-05)
(-0.0307309 -1.27273e-19 0.000206928)
(-0.030654 1.31555e-19 0.000325248)
(-0.0305339 -1.25661e-19 0.000447078)
(-0.0303689 1.37135e-19 0.000571865)
(-0.0301569 1.32125e-19 0.000699399)
(-0.0298952 -1.21192e-19 0.000827721)
(-0.0295805 1.1569e-19 0.000954857)
(-0.0292087 -1.61307e-19 0.00108894)
(-0.0287791 1.4396e-19 0.00123378)
(-0.0282948 -1.30503e-19 0.00138461)
(-0.0277513 2.48999e-19 0.00154124)
(-0.0271427 -3.09162e-21 0.00170281)
(-0.0264673 -1.1632e-19 0.00187032)
(-0.025724 2.20088e-19 0.00204328)
(-0.0249092 -1.08832e-19 0.00222179)
(-0.0240149 1.86689e-19 0.00239816)
(-0.0230575 -7.58369e-20 0.00259939)
(-0.0221925 8.03936e-20 0.00270735)
(-0.0218856 -7.57415e-20 0.00285193)
(-0.0213773 7.81532e-22 0.00285189)
(-0.17834 1.00935e-19 0.00271278)
(-0.0693701 -4.58509e-20 -0.112591)
(-0.121277 1.90094e-20 -0.0243293)
(-0.0493127 -4.43153e-20 -0.0962202)
(-0.0561981 1.48358e-19 -0.0398284)
(-0.0356748 1.73397e-20 -0.0754345)
(-0.0327164 1.71498e-20 -0.0509705)
(-0.0226569 -2.03659e-19 -0.06712)
(-0.0150506 4.88748e-20 -0.0610564)
(-0.00490962 1.55561e-19 -0.0635798)
(-0.00939283 -7.58699e-24 -1.58266e-05)
(-0.00944172 -1.73205e-22 -4.79144e-05)
(-0.0094605 -3.41036e-21 -8.00407e-05)
(-0.00948317 -4.73826e-20 -0.000111475)
(-0.00951299 4.42439e-20 -0.000143086)
(-0.00955227 4.37389e-20 -0.000175016)
(-0.00960214 4.60758e-20 -0.000207179)
(-0.00966257 -1.34309e-22 -0.000239494)
(-0.00973303 -4.17323e-20 -0.000271941)
(-0.00981304 4.43833e-20 -0.000304527)
(-0.00990233 -4.22266e-20 -0.000337268)
(-0.0100008 -5.14315e-21 -0.000370179)
(-0.0101085 -3.2984e-20 -0.000403279)
(-0.0102254 4.36163e-20 -0.000436579)
(-0.0103516 -4.98572e-20 -0.000470093)
(-0.0104871 -5.26426e-21 -0.000503832)
(-0.010632 -5.68252e-20 -0.000537802)
(-0.0107864 -5.75199e-20 -0.000572011)
(-0.0109503 -5.13492e-20 -0.000606461)
(-0.0111238 -4.99087e-20 -0.000641155)
(-0.0113069 -6.2082e-20 -0.000676091)
(-0.0114998 -5.21394e-20 -0.000711264)
(-0.0117024 9.23026e-22 -0.000746668)
(-0.0119149 5.21402e-20 -0.000782291)
(-0.0121372 -4.30057e-20 -0.000818118)
(-0.0123695 1.06298e-19 -0.000854132)
(-0.0126117 -1.21727e-19 -0.000890307)
(-0.012864 -5.49823e-20 -0.000926616)
(-0.0131263 -5.73717e-20 -0.000963025)
(-0.0133987 -6.48255e-20 -0.000999494)
(-0.0136811 -6.78366e-20 -0.00103598)
(-0.0139736 3.77931e-21 -0.00107242)
(-0.0142761 1.44899e-19 -0.00110875)
(-0.0145887 6.14895e-20 -0.0011449)
(-0.0149112 2.21314e-21 -0.00118077)
(-0.0152435 7.12377e-20 -0.00121632)
(-0.0155854 7.47371e-20 -0.00125141)
(-0.015937 8.33037e-20 -0.00128588)
(-0.0162982 7.23153e-20 -0.00131973)
(-0.0166689 8.84881e-20 -0.00135293)
(-0.0170487 8.04098e-20 -0.00138531)
(-0.0174375 3.63622e-21 -0.00141676)
(-0.0178349 8.35268e-20 -0.00144711)
(-0.0182406 9.40241e-20 -0.00147618)
(-0.0186542 1.1107e-19 -0.00150381)
(-0.0190754 1.02367e-19 -0.00152982)
(-0.0195036 8.75422e-20 -0.00155404)
(-0.0199382 1.00607e-19 -0.00157625)
(-0.0203788 4.42305e-21 -0.00159626)
(-0.0208247 8.45383e-20 -0.00161384)
(-0.0212752 1.07013e-19 -0.00162876)
(-0.0217295 5.75688e-22 -0.00164078)
(-0.0221868 1.34169e-20 -0.00164965)
(-0.0226461 2.35662e-19 -0.00165512)
(-0.0231066 6.04253e-22 -0.00165693)
(-0.0235671 5.30264e-21 -0.00165483)
(-0.0240266 2.47001e-19 -0.00164854)
(-0.0244838 1.41475e-19 -0.00163782)
(-0.0249376 1.2622e-19 -0.00162241)
(-0.0253866 5.67649e-21 -0.00160207)
(-0.0258294 1.18648e-19 -0.00157657)
(-0.0262645 1.19254e-19 -0.00154567)
(-0.0266905 1.34329e-19 -0.00150916)
(-0.0271057 1.09199e-19 -0.00146682)
(-0.0275087 1.3546e-19 -0.00141849)
(-0.0278977 7.06053e-21 -0.00136404)
(-0.0282709 1.17734e-20 -0.00130333)
(-0.0286263 1.27624e-19 -0.00123645)
(-0.0289625 2.75617e-20 -0.00116262)
(-0.0292779 1.27925e-19 -0.00108153)
(-0.0295706 -1.24273e-19 -0.000993744)
(-0.0298389 1.47401e-19 -0.000899213)
(-0.030081 1.6643e-19 -0.000797947)
(-0.0302952 1.35481e-19 -0.000690001)
(-0.0304796 -1.2743e-19 -0.000575438)
(-0.0306327 1.5414e-19 -0.000454331)
(-0.0307525 1.45932e-19 -0.000326766)
(-0.0308374 -1.31402e-19 -0.000192835)
(-0.0308858 1.37724e-19 -5.26306e-05)
(-0.0308957 2.38584e-20 9.37054e-05)
(-0.0308655 1.41359e-19 0.000246001)
(-0.0307933 -1.31794e-19 0.000404028)
(-0.0306773 1.38468e-19 0.000567387)
(-0.0305157 1.39916e-19 0.000735923)
(-0.0303065 -1.27455e-19 0.000909065)
(-0.0300487 1.25356e-19 0.00108371)
(-0.0297408 1.59457e-19 0.00126859)
(-0.0293786 1.42653e-19 0.00146729)
(-0.0289597 -1.20893e-19 0.00167391)
(-0.0284825 1.05696e-19 0.00188918)
(-0.0279446 2.99695e-20 0.00211183)
(-0.0273422 1.48668e-20 0.00234165)
(-0.0266732 1.01482e-19 0.0025788)
(-0.0259355 1.41799e-20 0.0028226)
(-0.0251253 1.08472e-19 0.00307313)
(-0.0242322 2.36835e-20 0.00331591)
(-0.0232669 9.17531e-20 0.00360948)
(-0.0223473 1.10611e-19 0.00374566)
(-0.0219492 1.23466e-19 0.00414821)
(-0.0213885 1.0384e-20 0.00402905)
(-0.134947 6.41012e-20 0.00456664)
(-0.0678158 2.2238e-19 -0.0548352)
(-0.107907 -1.20913e-19 -0.0121621)
(-0.0500275 7.79512e-20 -0.0707776)
(-0.0588498 -2.86453e-20 -0.0308348)
(-0.0359121 -5.82005e-20 -0.0626942)
(-0.032979 -1.67439e-19 -0.0427292)
(-0.0212148 2.11735e-19 -0.0575663)
(-0.0141977 1.37008e-19 -0.0516188)
(-0.00512067 -1.38655e-19 -0.054336)
(-0.00935662 -3.49866e-24 -2.00862e-05)
(-0.00940549 -8.96041e-23 -6.09058e-05)
(-0.00942438 -1.88056e-21 -0.000101927)
(-0.00944704 -8.4258e-21 -0.000142101)
(-0.00947675 3.45026e-21 -0.000182455)
(-0.00951587 2.51038e-21 -0.00022315)
(-0.00956557 4.58654e-22 -0.000264094)
(-0.00962583 -3.44262e-21 -0.000305208)
(-0.00969613 -1.10154e-21 -0.000346491)
(-0.00977596 1.54269e-21 -0.000387958)
(-0.00986506 3.46308e-21 -0.000429631)
(-0.00996333 -8.37792e-21 -0.000471528)
(-0.0100708 -5.20785e-21 -0.000513667)
(-0.0101874 1.36773e-21 -0.000556064)
(-0.0103134 -3.86641e-21 -0.000598733)
(-0.0104486 5.25614e-21 -0.000641686)
(-0.0105933 4.82293e-21 -0.000684934)
(-0.0107474 2.80401e-21 -0.000728483)
(-0.010911 -6.82146e-21 -0.000772337)
(-0.0110842 -1.07142e-21 -0.000816499)
(-0.0112671 4.34494e-22 -0.000860967)
(-0.0114597 -5.37652e-22 -0.000905734)
(-0.0116621 9.54927e-21 -0.000950792)
(-0.0118743 1.09133e-20 -0.000996126)
(-0.0120964 -1.44468e-21 -0.00104172)
(-0.0123285 2.78277e-21 -0.00108754)
(-0.0125706 -2.11697e-20 -0.00113357)
(-0.0128227 -1.31517e-22 -0.00117977)
(-0.013085 2.46695e-22 -0.0012261)
(-0.0133573 -9.60406e-21 -0.0012725)
(-0.0136397 9.24108e-21 -0.00131892)
(-0.0139323 1.47048e-20 -0.00136529)
(-0.014235 1.53954e-20 -0.00141153)
(-0.0145478 -5.1058e-21 -0.00145755)
(-0.0148706 9.53982e-22 -0.00150325)
(-0.0152034 3.35456e-21 -0.00154861)
(-0.0155458 1.04368e-20 -0.00159339)
(-0.015898 7.44533e-21 -0.00163764)
(-0.01626 -5.05555e-21 -0.0016812)
(-0.0166315 7.25466e-21 -0.00172388)
(-0.0170124 3.92441e-21 -0.00176551)
(-0.0174023 1.49486e-21 -0.00180592)
(-0.017801 4.0345e-21 -0.00184493)
(-0.0182083 -2.84439e-22 -0.00188232)
(-0.0186236 5.33738e-21 -0.00191788)
(-0.0190467 3.74542e-21 -0.00195136)
(-0.019477 3.19177e-20 -0.00198255)
(-0.0199141 5.37438e-21 -0.00201117)
(-0.0203574 1.67265e-20 -0.00203695)
(-0.0208062 4.60172e-21 -0.00205962)
(-0.0212598 -4.21511e-21 -0.00207888)
(-0.0217175 4.846e-22 -0.00209443)
(-0.0221786 1.98292e-20 -0.00210594)
(-0.0226419 1.02608e-20 -0.00211309)
(-0.0231067 -1.60811e-20 -0.00211557)
(-0.0235719 -1.82795e-21 -0.00211302)
(-0.0240363 9.82183e-21 -0.00210513)
(-0.0244987 -7.91015e-22 -0.00209157)
(-0.024958 5.57447e-21 -0.00207202)
(-0.0254127 2.05663e-20 -0.00204616)
(-0.0258615 5.96631e-21 -0.00201369)
(-0.0263029 1.35947e-20 -0.00197435)
(-0.0267353 7.9759e-21 -0.00192786)
(-0.0271573 -4.43113e-21 -0.00187398)
(-0.027567 -2.92361e-21 -0.00181252)
(-0.0279629 -4.83685e-21 -0.00174329)
(-0.0283432 8.02616e-21 -0.00166612)
(-0.0287062 -1.26628e-21 -0.00158089)
(-0.02905 2.74022e-21 -0.0014878)
(-0.0293731 7.63624e-21 -0.00138601)
(-0.0296736 -6.43499e-21 -0.00127516)
(-0.0299495 1.31097e-20 -0.0011559)
(-0.0301992 2.08418e-20 -0.00102818)
(-0.0304208 2.05556e-21 -0.000892061)
(-0.0306127 -7.76107e-21 -0.000747615)
(-0.030773 2.21068e-20 -0.000594927)
(-0.0309001 6.11187e-21 -0.000434095)
(-0.0309922 -6.85698e-21 -0.000265213)
(-0.0310475 7.75583e-21 -8.835e-05)
(-0.0310644 1.11426e-20 9.63656e-05)
(-0.0310409 7.86189e-21 0.000288735)
(-0.0309752 -7.35942e-21 0.000488552)
(-0.0308652 3.02749e-21 0.000695428)
(-0.0307086 2.75436e-20 0.000909023)
(-0.0305053 -8.40799e-21 0.00112642)
(-0.0302566 -2.32063e-21 0.00135279)
(-0.0299607 -9.47919e-21 0.00159638)
(-0.0296096 1.42116e-20 0.00184996)
(-0.0292006 -2.92455e-21 0.00211413)
(-0.0287323 4.91683e-21 0.00238906)
(-0.0282027 2.93633e-20 0.00267404)
(-0.0276088 -2.70354e-20 0.00296899)
(-0.0269479 1.64669e-20 0.00327384)
(-0.0262176 2.64609e-21 0.00358801)
(-0.0254135 4.3207e-21 0.00391208)
(-0.0245235 3.33041e-21 0.00422724)
(-0.0235573 -1.81366e-20 0.00461916)
(-0.0226169 -2.06102e-20 0.00480382)
(-0.0222099 1.21628e-20 0.00541592)
(-0.0218269 2.14562e-19 0.00521123)
(-0.112008 8.4049e-20 0.00607634)
(-0.0659987 1.0605e-19 -0.0296176)
(-0.0918963 -5.54672e-20 -0.00439843)
(-0.0449001 -5.44326e-20 -0.050735)
(-0.0543624 7.03268e-20 -0.0230531)
(-0.0331554 -5.58116e-20 -0.0508127)
(-0.0309008 -1.4718e-22 -0.0352399)
(-0.0192711 6.40531e-20 -0.0485559)
(-0.0131104 -1.98895e-19 -0.04343)
(-0.00470626 7.48642e-20 -0.0461105)
(-0.00931174 -3.75958e-24 -2.43881e-05)
(-0.00936049 -9.18393e-23 -7.39953e-05)
(-0.00937942 -1.60994e-21 -0.00012395)
(-0.00940205 5.46825e-21 -0.000172921)
(-0.00943166 2.49138e-21 -0.000222099)
(-0.00947063 8.21675e-21 -0.000271655)
(-0.00952015 -6.35893e-21 -0.000321479)
(-0.00958021 3.73064e-21 -0.000371492)
(-0.0096503 4.82808e-20 -0.000421702)
(-0.0097299 -6.30573e-21 -0.00047214)
(-0.00981876 4.04348e-20 -0.000522832)
(-0.00991677 3.9898e-21 -0.000573801)
(-0.0100239 4.22019e-20 -0.000625068)
(-0.0101403 8.32293e-21 -0.000676651)
(-0.0102659 4.7649e-20 -0.000728568)
(-0.0104009 5.32582e-21 -0.000780832)
(-0.0105452 7.07096e-20 -0.000833455)
(-0.010699 4.05016e-20 -0.000886445)
(-0.0108623 -4.91575e-20 -0.00093981)
(-0.0110351 6.37342e-20 -0.000993549)
(-0.0112177 6.50369e-20 -0.00104766)
(-0.0114099 4.64478e-20 -0.00110214)
(-0.011612 5.23172e-21 -0.00115697)
(-0.0118239 5.11079e-20 -0.00121215)
(-0.0120458 -6.80379e-21 -0.00126764)
(-0.0122776 3.81276e-20 -0.00132341)
(-0.0125195 -1.49136e-20 -0.00137945)
(-0.0127715 -4.76872e-20 -0.00143569)
(-0.0130336 7.80323e-20 -0.00149209)
(-0.0133058 6.78293e-20 -0.00154859)
(-0.0135883 5.95657e-20 -0.00160512)
(-0.013881 7.06768e-21 -0.00166161)
(-0.0141839 6.75961e-20 -0.00171795)
(-0.0144969 -2.01389e-20 -0.00177405)
(-0.0148202 5.87988e-21 -0.00182984)
(-0.0151533 1.58742e-21 -0.00188521)
(-0.0154963 4.10757e-21 -0.00193996)
(-0.0158493 -6.58579e-20 -0.00199409)
(-0.0162122 -1.1277e-20 -0.00204734)
(-0.0165847 7.52131e-21 -0.00209951)
(-0.0169668 2.61443e-21 -0.00215042)
(-0.0173582 8.94239e-21 -0.00219986)
(-0.0177586 1.02358e-20 -0.00224758)
(-0.0181677 1.03753e-20 -0.00229335)
(-0.0185852 2.18075e-20 -0.00233691)
(-0.0190107 6.50347e-20 -0.00237796)
(-0.0194438 8.33737e-22 -0.00241622)
(-0.0198838 -8.15194e-21 -0.00245138)
(-0.0203304 1.06895e-20 -0.00248311)
(-0.0207828 1.37514e-20 -0.00251105)
(-0.0212404 1.28049e-21 -0.00253486)
(-0.0217024 1.1631e-20 -0.00255416)
(-0.0221681 2.42239e-20 -0.00256857)
(-0.0226365 6.27295e-21 -0.00257768)
(-0.0231066 -1.14562e-19 -0.00258111)
(-0.0235775 9.24109e-21 -0.00257844)
(-0.024048 -1.98277e-20 -0.00256928)
(-0.0245169 1.29093e-20 -0.00255322)
(-0.024983 -1.58911e-20 -0.00252986)
(-0.0254449 1.2796e-20 -0.00249884)
(-0.0259012 -6.79833e-22 -0.00245977)
(-0.0263504 8.55638e-21 -0.00241232)
(-0.0267909 -1.17187e-19 -0.00235617)
(-0.0272211 1.74148e-21 -0.00229103)
(-0.0276393 4.68931e-21 -0.00221664)
(-0.0280438 2.5823e-20 -0.0021328)
(-0.028433 1.22793e-20 -0.00203929)
(-0.0288049 1.75663e-20 -0.00193597)
(-0.0291581 1.40409e-19 -0.0018228)
(-0.0294905 -1.38267e-20 -0.00170001)
(-0.0298005 -8.14297e-21 -0.00156665)
(-0.030086 1.29667e-20 -0.00142233)
(-0.030345 1.43449e-19 -0.00126771)
(-0.0305758 5.98988e-21 -0.0011029)
(-0.0307768 8.65811e-21 -0.000927992)
(-0.0309462 1.45278e-19 -0.000743099)
(-0.0310822 1.84769e-21 -0.000548348)
(-0.0311832 1.84496e-21 -0.000343852)
(-0.0312473 6.97162e-21 -0.000129654)
(-0.0312727 1.39733e-19 9.40432e-05)
(-0.0312576 4.94685e-21 0.000326798)
(-0.0311999 5.30475e-22 0.000568268)
(-0.0310967 3.14401e-21 0.000817687)
(-0.0309464 1.42666e-19 0.00107291)
(-0.0307527 2.88885e-20 0.00133659)
(-0.0305187 -2.89948e-20 0.00161872)
(-0.0302352 1.17145e-19 0.00191508)
(-0.029896 1.26525e-21 0.0022227)
(-0.0294988 1.16641e-20 0.00254346)
(-0.0290421 -1.50239e-20 0.00287726)
(-0.0285239 1.26655e-19 0.00322404)
(-0.0279415 1.75429e-20 0.00358382)
(-0.0272918 -1.80696e-20 0.00395659)
(-0.0265719 1.17013e-19 0.00434199)
(-0.0257777 2.74171e-21 0.00474103)
(-0.0248958 1.02938e-19 0.00513147)
(-0.0239367 -9.82915e-21 0.00562105)
(-0.0229869 9.31819e-20 0.00586049)
(-0.0225688 2.91242e-20 0.00665682)
(-0.0222899 2.19951e-20 0.00641228)
(-0.0967405 9.63857e-20 0.00754866)
(-0.0646815 6.24288e-19 -0.017102)
(-0.0774082 4.09097e-20 -7.97919e-05)
(-0.0407312 6.49104e-20 -0.0364309)
(-0.0496545 1.65058e-19 -0.01651)
(-0.0309134 -6.47005e-20 -0.0401696)
(-0.0289843 -8.43645e-20 -0.0280913)
(-0.017967 8.48529e-20 -0.0398307)
(-0.012327 1.05578e-19 -0.0355562)
(-0.00449751 -9.7354e-20 -0.0380562)
(-0.00925816 -3.04011e-24 -2.87041e-05)
(-0.00930669 -8.55759e-23 -8.71098e-05)
(-0.0093256 -1.58801e-21 -0.00014598)
(-0.00934819 4.34191e-21 -0.000203728)
(-0.00937769 2.26594e-21 -0.000261719)
(-0.0094165 3.60463e-22 -0.000320139)
(-0.00946583 -1.72521e-21 -0.000378855)
(-0.00952567 7.14641e-21 -0.00043778)
(-0.0095955 -4.50782e-20 -0.000496934)
(-0.00967484 -5.52765e-20 -0.000556355)
(-0.0097634 -4.78039e-20 -0.000616078)
(-0.0098611 -1.61231e-21 -0.000676131)
(-0.00996793 -3.42611e-20 -0.000736539)
(-0.0100839 -5.03835e-20 -0.000797325)
(-0.0102092 -5.21165e-20 -0.000858506)
(-0.0103438 -7.24888e-21 -0.000920101)
(-0.0104877 -5.58491e-20 -0.000982123)
(-0.010641 -5.31253e-20 -0.00104458)
(-0.0108039 -1.72509e-20 -0.00110749)
(-0.0109764 -4.61836e-20 -0.00117084)
(-0.0111585 -4.62839e-20 -0.00123463)
(-0.0113504 -4.74966e-20 -0.00129887)
(-0.0115521 6.58114e-21 -0.00136353)
(-0.0117636 -6.7654e-20 -0.0014286)
(-0.0119851 1.08682e-21 -0.00149405)
(-0.0122167 -6.97432e-20 -0.00155984)
(-0.0124583 1.014e-19 -0.00162595)
(-0.0127101 2.23302e-20 -0.00169232)
(-0.012972 -5.03444e-20 -0.00175889)
(-0.0132442 -5.89213e-20 -0.00182559)
(-0.0135267 -6.6482e-20 -0.00189235)
(-0.0138195 1.10269e-20 -0.00195907)
(-0.0141226 -5.9425e-20 -0.00202566)
(-0.0144359 -1.51939e-20 -0.00209199)
(-0.0147596 1.39685e-19 -0.00215801)
(-0.0150932 1.16545e-20 -0.00222352)
(-0.0154369 1.36784e-19 -0.00228839)
(-0.0157907 8.17464e-21 -0.00235247)
(-0.0161546 6.93606e-21 -0.00241552)
(-0.0165285 1.5848e-19 -0.00247733)
(-0.016912 1.39766e-20 -0.00253766)
(-0.0173051 1.71787e-19 -0.00259628)
(-0.0177075 1.45769e-20 -0.00265291)
(-0.0181189 1.71234e-19 -0.00270728)
(-0.018539 1.66367e-20 -0.00275906)
(-0.0189673 -9.37167e-20 -0.00280793)
(-0.0194036 1.68076e-19 -0.00285354)
(-0.0198472 1.54602e-20 -0.00289553)
(-0.0202977 2.05699e-19 -0.0029335)
(-0.0207544 1.70008e-20 -0.00296705)
(-0.0212167 2.0109e-19 -0.00299576)
(-0.0216838 2.29981e-19 -0.00301918)
(-0.022155 2.37825e-19 -0.00303685)
(-0.0226294 -1.04979e-20 -0.00304831)
(-0.023106 3.6484e-21 -0.00305308)
(-0.0235837 2.64959e-19 -0.00305069)
(-0.0240615 1.51559e-20 -0.00304065)
(-0.0245381 2.42167e-19 -0.00302248)
(-0.0250124 2.04081e-20 -0.00299571)
(-0.0254828 2.20441e-19 -0.00295988)
(-0.0259481 1.9499e-20 -0.00291456)
(-0.0264066 2.28894e-19 -0.00285933)
(-0.0268567 1.09087e-20 -0.0027938)
(-0.0272969 1.11613e-20 -0.00271762)
(-0.0277253 2.59793e-19 -0.00263048)
(-0.0281403 2.89279e-19 -0.00253211)
(-0.02854 1.78056e-20 -0.00242229)
(-0.0289226 -1.20734e-20 -0.00230085)
(-0.0292866 -1.29555e-19 -0.00216767)
(-0.0296301 -2.06123e-20 -0.00202287)
(-0.0299512 1.35372e-20 -0.00186672)
(-0.0302481 5.23385e-21 -0.00169828)
(-0.0305187 -1.4032e-19 -0.00151718)
(-0.0307607 -2.43282e-20 -0.00132363)
(-0.0309726 7.9218e-21 -0.00111812)
(-0.0311526 -1.26769e-19 -0.000900798)
(-0.0312993 -1.69575e-20 -0.000671899)
(-0.0314107 1.26005e-20 -0.000431626)
(-0.0314853 -1.09944e-20 -0.000180078)
(-0.0315209 -1.29462e-19 8.22468e-05)
(-0.0315154 -6.01993e-21 0.000354364)
(-0.031466 1.21812e-20 0.000635367)
(-0.0313689 -1.97203e-20 0.000923646)
(-0.0312292 -1.26997e-19 0.00122207)
(-0.0310523 6.28388e-21 0.00153947)
(-0.0308334 -3.27917e-20 0.00187515)
(-0.0305632 -1.38533e-19 0.00222289)
(-0.0302375 1.51476e-20 0.00258474)
(-0.0298544 1.41385e-20 0.00296163)
(-0.0294122 -3.46039e-20 0.00335406)
(-0.0289085 -1.06787e-19 0.00376242)
(-0.0283406 -1.78416e-20 0.00418697)
(-0.0277054 -1.86901e-20 0.00462787)
(-0.0269997 -9.64994e-20 0.00508509)
(-0.0262193 -1.22288e-20 0.00555993)
(-0.02535 -8.59659e-20 0.00602716)
(-0.0244041 -5.03702e-20 0.00661374)
(-0.0234526 -9.45778e-20 0.00691112)
(-0.0230314 2.7226e-20 0.00787632)
(-0.0228449 2.61423e-19 0.00760838)
(-0.0862386 -3.09831e-20 0.00896473)
(-0.062692 6.51004e-19 -0.00958845)
(-0.066121 4.8235e-20 0.00290166)
(-0.0360197 -1.50405e-20 -0.0255819)
(-0.0441942 -2.55814e-20 -0.0110937)
(-0.0278337 -9.37374e-20 -0.030883)
(-0.0263122 -3.50701e-20 -0.0216863)
(-0.0162097 1.44105e-19 -0.031866)
(-0.0112127 -9.57368e-20 -0.0285008)
(-0.00408533 -2.4056e-20 -0.0307857)
(-0.00919586 6.41955e-25 -3.30175e-05)
(-0.00924411 1.57103e-23 -0.000100208)
(-0.00926297 3.72986e-22 -0.000167961)
(-0.00928548 4.38908e-20 -0.000234446)
(-0.00931486 -4.43106e-21 -0.000301213)
(-0.00935351 -6.63421e-21 -0.000368468)