/*--------------------------------*- C++ -*----------------------------------*\
| =========                 |                                                 |
| \\      /  F ield         | OpenFOAM: The Open Source CFD Toolbox           |
|  \\    /   O peration     | Version:  v2106                                 |
|   \\  /    A nd           | Website:  www.openfoam.com                      |
|    \\/     M anipulation  |                                                 |
\*---------------------------------------------------------------------------*/
FoamFile
{
    version     2.0;
    format      ascii;
    arch        "LSB;label=32;scalar=64";
    class       volScalarField;
    location    "0.3";
    object      p;
}
// * * * * * * * * * * * * * * * * * * * * * * * * * * * * * * * * * * * * * //

dimensions      [1 -1 -2 0 0 0 0];

internalField   nonuniform List<scalar> 
29678
(
14641.5
14494.4
14347.2
14200.1
14052.9
13905.8
13758.6
13611.5
13464.3
13317.2
13170
13022.9
12875.7
12728.6
12581.4
12434.3
12287.1
12140
11992.8
11845.7
11698.5
11551.4
11404.2
11257.1
11109.9
10962.8
10815.6
10668.5
10521.4
10374.2
10227.1
10079.9
9932.77
9785.62
9638.47
9491.33
9344.18
9197.03
9049.89
8902.74
8755.59
8608.45
8461.3
8314.16
8167.01
8019.86
7872.72
7725.57
7578.43
7431.28
7284.14
7136.99
6989.85
6842.7
6695.55
6548.41
6401.26
6254.12
6106.97
5959.83
5812.68
5665.54
5518.39
5371.24
5224.1
5076.95
4929.8
4782.66
4635.51
4488.36
4341.21
4194.06
4046.91
3899.77
3752.62
3605.46
3458.31
3311.16
3164.01
3016.86
2869.7
2722.55
2575.39
2428.24
2281.08
2133.92
1986.76
1839.6
1692.44
1545.28
1398.12
1250.96
1103.79
956.629
809.464
662.298
515.132
367.965
220.798
73.6269
-0.0685085
-0.276607
-0.461132
-0.643981
-0.827876
-1.01165
-1.19557
-1.3795
-1.56344
-1.7474
14641.7
14494.6
14347.4
14200.3
14053.1
13906
13758.8
13611.7
13464.5
13317.4
13170.2
13023.1
12875.9
12728.8
12581.6
12434.5
12287.3
12140.2
11993
11845.9
11698.8
11551.6
11404.5
11257.3
11110.2
10963
10815.9
10668.8
10521.6
10374.5
10227.3
10080.2
9933.05
9785.91
9638.77
9491.63
9344.49
9197.35
9050.21
8903.07
8755.93
8608.79
8461.65
8314.52
8167.38
8020.24
7873.11
7725.97
7578.83
7431.7
7284.56
7137.42
6990.29
6843.15
6696.01
6548.88
6401.74
6254.6
6107.47
5960.33
5813.19
5666.06
5518.92
5371.78
5224.64
5077.5
4930.36
4783.22
4636.08
4488.93
4341.79
4194.64
4047.5
3900.35
3753.2
3606.05
3458.89
3311.74
3164.58
3017.42
2870.26
2723.1
2575.93
2428.76
2281.59
2134.42
1987.24
1840.06
1692.88
1545.7
1398.51
1251.32
1104.13
956.94
809.745
662.548
515.349
368.146
220.949
73.7182
-0.0226482
-0.276094
-0.460083
-0.643695
-0.827526
-1.01143
-1.19539
-1.37937
-1.56337
-1.74737
14641.9
14494.7
14347.6
14200.4
14053.3
13906.1
13759
13611.8
13464.7
13317.6
13170.4
13023.3
12876.1
12729
12581.8
12434.7
12287.5
12140.4
11993.3
11846.1
11699
11551.8
11404.7
11257.6
11110.4
10963.3
10816.1
10669
10521.9
10374.7
10227.6
10080.5
9933.33
9786.19
9639.06
9491.93
9344.79
9197.66
9050.53
8903.4
8756.27
8609.14
8462.01
8314.88
8167.75
8020.62
7873.49
7726.36
7579.24
7432.11
7284.98
7137.85
6990.73
6843.6
6696.47
6549.35
6402.22
6255.09
6107.96
5960.84
5813.71
5666.58
5519.45
5372.32
5225.19
5078.05
4930.92
4783.79
4636.65
4489.51
4342.37
4195.23
4048.08
3900.93
3753.79
3606.63
3459.48
3312.32
3165.16
3017.99
2870.82
2723.65
2576.47
2429.29
2282.11
2134.92
1987.72
1840.53
1693.32
1546.12
1398.91
1251.69
1104.47
957.253
810.028
662.799
515.568
368.331
221.108
73.824
0.0294316
-0.275577
-0.459509
-0.643338
-0.827246
-1.01121
-1.19521
-1.37924
-1.56329
-1.74734
14642.1
14494.9
14347.8
14200.6
14053.5
13906.3
13759.2
13612
13464.9
13317.7
13170.6
13023.5
12876.3
12729.2
12582
12434.9
12287.8
12140.6
11993.5
11846.3
11699.2
11552.1
11404.9
11257.8
11110.7
10963.5
10816.4
10669.3
10522.1
10375
10227.9
10080.7
9933.61
9786.48
9639.35
9492.23
9345.1
9197.98
9050.85
8903.73
8756.6
8609.48
8462.36
8315.24
8168.12
8021
7873.88
7726.76
7579.64
7432.52
7285.4
7138.29
6991.17
6844.05
6696.93
6549.82
6402.7
6255.58
6108.46
5961.34
5814.22
5667.1
5519.98
5372.86
5225.73
5078.61
4931.48
4784.35
4637.22
4490.09
4342.95
4195.81
4048.67
3901.52
3754.37
3607.22
3460.06
3312.9
3165.73
3018.56
2871.39
2724.2
2577.02
2429.82
2282.62
2135.42
1988.21
1840.99
1693.77
1546.54
1399.31
1252.07
1104.82
957.569
810.314
663.053
515.79
368.517
221.266
73.927
0.0800473
-0.274908
-0.458864
-0.642877
-0.82689
-1.01093
-1.195
-1.37909
-1.5632
-1.74731
14642.3
14495.1
14348
14200.8
14053.7
13906.5
13759.4
13612.2
13465.1
13317.9
13170.8
13023.7
12876.5
12729.4
12582.2
12435.1
12288
12140.8
11993.7
11846.6
11699.4
11552.3
11405.2
11258
11110.9
10963.8
10816.6
10669.5
10522.4
10375.3
10228.1
10081
9933.89
9786.77
9639.65
9492.53
9345.41
9198.29
9051.17
8904.06
8756.94
8609.83
8462.71
8315.6
8168.49
8021.37
7874.26
7727.15
7580.04
7432.93
7285.83
7138.72
6991.61
6844.5
6697.39
6550.28
6403.18
6256.07
6108.96
5961.85
5814.74
5667.62
5520.51
5373.4
5226.28
5079.16
4932.04
4784.92
4637.79
4490.67
4343.53
4196.4
4049.26
3902.11
3754.97
3607.81
3460.65
3313.49
3166.32
3019.14
2871.96
2724.76
2577.57
2430.36
2283.15
2135.93
1988.7
1841.46
1694.22
1546.97
1399.71
1252.44
1105.17
957.89
810.604
663.312
516.015
368.707
221.427
74.0313
0.131034
-0.274272
-0.458282
-0.642409
-0.82651
-1.01063
-1.19478
-1.37893
-1.5631
-1.74728
14642.4
14495.3
14348.1
14201
14053.8
13906.7
13759.6
13612.4
13465.3
13318.1
13171
13023.9
12876.7
12729.6
12582.4
12435.3
12288.2
12141
11993.9
11846.8
11699.6
11552.5
11405.4
11258.3
11111.1
10964
10816.9
10669.8
10522.6
10375.5
10228.4
10081.3
9934.17
9787.05
9639.94
9492.83
9345.71
9198.6
9051.49
8904.38
8757.28
8610.17
8463.06
8315.96
8168.85
8021.75
7874.65
7727.55
7580.45
7433.35
7286.25
7139.15
6992.05
6844.95
6697.85
6550.75
6403.65
6256.55
6109.45
5962.35
5815.25
5668.15
5521.05
5373.94
5226.83
5079.72
4932.61
4785.49
4638.37
4491.25
4344.12
4196.99
4049.85
3902.71
3755.56
3608.41
3461.25
3314.08
3166.91
3019.72
2872.53
2725.33
2578.12
2430.91
2283.68
2136.44
1989.2
1841.94
1694.68
1547.4
1400.12
1252.83
1105.53
958.218
810.9
663.575
516.245
368.9
221.59
74.1381
0.183043
-0.27366
-0.457721
-0.641936
-0.826117
-1.01032
-1.19453
-1.37876
-1.563
-1.74725
14642.6
14495.5
14348.3
14201.2
14054
13906.9
13759.7
13612.6
13465.5
13318.3
13171.2
13024
12876.9
12729.8
12582.6
12435.5
12288.4
12141.2
11994.1
11847
11699.9
11552.7
11405.6
11258.5
11111.4
10964.2
10817.1
10670
10522.9
10375.8
10228.7
10081.6
9934.45
9787.34
9640.23
9493.12
9346.02
9198.91
9051.81
8904.71
8757.61
8610.51
8463.41
8316.32
8169.22
8022.13
7875.03
7727.94
7580.85
7433.76
7286.67
7139.58
6992.49
6845.4
6698.31
6551.22
6404.13
6257.04
6109.95
5962.86
5815.77
5668.68
5521.58
5374.48
5227.38
5080.28
4933.18
4786.07
4638.95
4491.84
4344.71
4197.59
4050.45
3903.31
3756.17
3609.01
3461.85
3314.68
3167.5
3020.31
2873.12
2725.91
2578.69
2431.46
2284.22
2136.97
1989.71
1842.43
1695.15
1547.85
1400.54
1253.22
1105.89
958.553
811.203
663.845
516.48
369.099
221.758
74.248
0.236411
-0.273058
-0.457166
-0.641459
-0.825714
-1.00999
-1.19428
-1.37858
-1.5629
-1.74721
14642.8
14495.7
14348.5
14201.4
14054.2
13907.1
13759.9
13612.8
13465.6
13318.5
13171.4
13024.2
12877.1
12730
12582.8
12435.7
12288.6
12141.5
11994.3
11847.2
11700.1
11553
11405.8
11258.7
11111.6
10964.5
10817.4
10670.3
10523.2
10376
10228.9
10081.8
9934.72
9787.62
9640.52
9493.42
9346.32
9199.22
9052.13
8905.03
8757.94
8610.85
8463.76
8316.67
8169.59
8022.5
7875.42
7728.33
7581.25
7434.17
7287.09
7140.01
6992.93
6845.85
6698.77
6551.69
6404.61
6257.53
6110.45
5963.37
5816.29
5669.2
5522.12
5375.03
5227.94
5080.84
4933.75
4786.65
4639.54
4492.43
4345.31
4198.19
4051.06
3903.92
3756.78
3609.62
3462.46
3315.29
3168.11
3020.92
2873.71
2726.5
2579.27
2432.03
2284.77
2137.51
1990.23
1842.93
1695.63
1548.31
1400.97
1253.63
1106.27
958.897
811.515
664.123
516.723
369.303
221.93
74.3616
0.291445
-0.272454
-0.45661
-0.640975
-0.825302
-1.00965
-1.19402
-1.3784
-1.56278
-1.74717
14643
14495.8
14348.7
14201.5
14054.4
13907.3
13760.1
13613
13465.8
13318.7
13171.6
13024.4
12877.3
12730.2
12583
12435.9
12288.8
12141.7
11994.5
11847.4
11700.3
11553.2
11406.1
11258.9
11111.8
10964.7
10817.6
10670.5
10523.4
10376.3
10229.2
10082.1
9935
9787.9
9640.81
9493.71
9346.62
9199.53
9052.44
8905.36
8758.27
8611.19
8464.11
8317.03
8169.95
8022.87
7875.8
7728.73
7581.65
7434.58
7287.51
7140.44
6993.37
6846.3
6699.23
6552.16
6405.09
6258.02
6110.95
5963.88
5816.81
5669.73
5522.66
5375.58
5228.5
5081.41
4934.32
4787.23
4640.13
4493.03
4345.91
4198.8
4051.67
3904.54
3757.4
3610.24
3463.08
3315.91
3168.72
3021.53
2874.32
2727.09
2579.86
2432.61
2285.34
2138.06
1990.76
1843.45
1696.12
1548.78
1401.42
1254.04
1106.65
959.253
811.837
664.41
516.974
369.515
222.109
74.4795
0.348467
-0.271839
-0.456045
-0.640481
-0.824879
-1.00931
-1.19375
-1.3782
-1.56267
-1.74713
14643.2
14496
14348.9
14201.7
14054.6
13907.4
13760.3
13613.2
13466
13318.9
13171.7
13024.6
12877.5
12730.4
12583.2
12436.1
12289
12141.9
11994.7
11847.6
11700.5
11553.4
11406.3
11259.2
11112.1
10965
10817.9
10670.8
10523.7
10376.6
10229.5
10082.4
9935.27
9788.18
9641.09
9494.01
9346.92
9199.84
9052.76
8905.68
8758.6
8611.53
8464.46
8317.38
8170.31
8023.25
7876.18
7729.12
7582.05
7434.99
7287.93
7140.87
6993.81
6846.75
6699.69
6552.63
6405.57
6258.51
6111.45
5964.39
5817.33
5670.27
5523.2
5376.13
5229.06
5081.98
4934.9
4787.82
4640.73
4493.63
4346.53
4199.41
4052.29
3905.16
3758.02
3610.88
3463.71
3316.54
3169.35
3022.15
2874.94
2727.71
2580.46
2433.2
2285.92
2138.62
1991.31
1843.98
1696.63
1549.26
1401.88
1254.47
1107.05
959.621
812.171
664.708
517.234
369.734
222.295
74.6025
0.407817
-0.271207
-0.455465
-0.639972
-0.824442
-1.00895
-1.19347
-1.378
-1.56255
-1.74709
14643.3
14496.2
14349
14201.9
14054.8
13907.6
13760.5
13613.3
13466.2
13319.1
13171.9
13024.8
12877.7
12730.6
12583.4
12436.3
12289.2
12142.1
11995
11847.8
11700.7
11553.6
11406.5
11259.4
11112.3
10965.2
10818.1
10671
10523.9
10376.8
10229.7
10082.6
9935.54
9788.46
9641.38
9494.3
9347.22
9200.14
9053.07
8906
8758.93
8611.86
8464.8
8317.74
8170.68
8023.62
7876.56
7729.5
7582.45
7435.4
7288.35
7141.3
6994.25
6847.2
6700.15
6553.1
6406.05
6259.01
6111.96
5964.91
5817.86
5670.8
5523.75
5376.69
5229.62
5082.56
4935.49
4788.41
4641.33
4494.24
4347.14
4200.04
4052.92
3905.8
3758.66
3611.52
3464.36
3317.18
3170
3022.79
2875.57
2728.34
2581.08
2433.81
2286.52
2139.21
1991.88
1844.52
1697.15
1549.76
1402.35
1254.92
1107.47
960.004
812.519
665.019
517.506
369.964
222.49
74.7313
0.469857
-0.270555
-0.454865
-0.639444
-0.823989
-1.00857
-1.19317
-1.37779
-1.56242
-1.74705
14643.5
14496.4
14349.2
14202.1
14054.9
13907.8
13760.7
13613.5
13466.4
13319.2
13172.1
13025
12877.9
12730.7
12583.6
12436.5
12289.4
12142.3
11995.2
11848
11700.9
11553.8
11406.7
11259.6
11112.5
10965.4
10818.3
10671.2
10524.1
10377.1
10230
10082.9
9935.81
9788.73
9641.66
9494.59
9347.51
9200.45
9053.38
8906.32
8759.26
8612.2
8465.14
8318.09
8171.04
8023.99
7876.94
7729.89
7582.85
7435.81
7288.76
7141.72
6994.68
6847.65
6700.61
6553.57
6406.54
6259.5
6112.46
5965.42
5818.38
5671.34
5524.29
5377.25
5230.19
5083.14
4936.08
4789.01
4641.94
4494.86
4347.77
4200.67
4053.56
3906.45
3759.32
3612.17
3465.01
3317.84
3170.65
3023.45
2876.23
2728.98
2581.72
2434.44
2287.13
2139.81
1992.46
1845.09
1697.7
1550.28
1402.85
1255.39
1107.9
960.403
812.882
665.343
517.79
370.204
222.693
74.8669
0.534999
-0.269874
-0.454239
-0.638893
-0.823518
-1.00818
-1.19287
-1.37758
-1.56229
-1.74701
14643.7
14496.5
14349.4
14202.2
14055.1
13908
13760.8
13613.7
13466.6
13319.4
13172.3
13025.2
12878.1
12730.9
12583.8
12436.7
12289.6
12142.5
11995.4
11848.2
11701.1
11554
11406.9
11259.8
11112.7
10965.7
10818.6
10671.5
10524.4
10377.3
10230.2
10083.2
9936.08
9789.01
9641.94
9494.87
9347.81
9200.75
9053.69
8906.63
8759.58
8612.53
8465.48
8318.44
8171.39
8024.35
7877.31
7730.28
7583.24
7436.21
7289.18
7142.15
6995.12
6848.09
6701.07
6554.04
6407.02
6259.99
6112.97
5965.94
5818.91
5671.88
5524.85
5377.81
5230.77
5083.72
4936.67
4789.62
4642.56
4495.48
4348.41
4201.32
4054.22
3907.1
3759.98
3612.84
3465.69
3318.52
3171.33
3024.12
2876.9
2729.65
2582.38
2435.09
2287.77
2140.43
1993.07
1845.68
1698.27
1550.83
1403.36
1255.87
1108.36
960.822
813.263
665.684
518.089
370.457
222.908
75.0101
0.603699
-0.269161
-0.453585
-0.638318
-0.823027
-1.00778
-1.19255
-1.37735
-1.56216
-1.74696
14643.9
14496.7
14349.6
14202.4
14055.3
13908.1
13761
13613.9
13466.7
13319.6
13172.5
13025.4
12878.2
12731.1
12584
12436.9
12289.8
12142.7
11995.6
11848.5
11701.3
11554.3
11407.2
11260.1
11113
10965.9
10818.8
10671.7
10524.6
10377.6
10230.5
10083.4
9936.34
9789.28
9642.21
9495.15
9348.1
9201.04
9053.99
8906.95
8759.9
8612.86
8465.82
8318.78
8171.75
8024.72
7877.69
7730.66
7583.64
7436.61
7289.59
7142.58
6995.56
6848.54
6701.53
6554.51
6407.5
6260.49
6113.47
5966.46
5819.44
5672.42
5525.4
5378.38
5231.35
5084.31
4937.28
4790.23
4643.18
4496.12
4349.05
4201.97
4054.88
3907.78
3760.66
3613.53
3466.38
3319.21
3172.02
3024.82
2877.59
2730.34
2583.06
2435.76
2288.44
2141.08
1993.7
1846.3
1698.86
1551.4
1403.9
1256.38
1108.84
961.262
813.664
666.043
518.404
370.724
223.135
75.1622
0.676463
-0.26841
-0.452898
-0.637715
-0.822511
-1.00735
-1.19222
-1.37711
-1.56201
-1.74692
14644
14496.9
14349.7
14202.6
14055.4
13908.3
13761.2
13614
13466.9
13319.8
13172.7
13025.5
12878.4
12731.3
12584.2
12437.1
12290
12142.9
11995.8
11848.7
11701.6
11554.5
11407.4
11260.3
11113.2
10966.1
10819
10671.9
10524.9
10377.8
10230.7
10083.7
9936.6
9789.54
9642.49
9495.44
9348.39
9201.34
9054.3
8907.26
8760.22
8613.19
8466.15
8319.13
8172.1
8025.08
7878.06
7731.04
7584.03
7437.02
7290.01
7143
6995.99
6848.99
6701.98
6554.98
6407.98
6260.98
6113.98
5966.98
5819.97
5672.97
5525.96
5378.95
5231.93
5084.91
4937.89
4790.85
4643.81
4496.76
4349.71
4202.64
4055.56
3908.46
3761.35
3614.23
3467.08
3319.92
3172.74
3025.53
2878.3
2731.05
2583.77
2436.46
2289.13
2141.76
1994.36
1846.94
1699.48
1551.99
1404.47
1256.92
1109.34
961.727
814.088
666.423
518.738
371.008
223.375
75.3243
0.753858
-0.267613
-0.452173
-0.637078
-0.821967
-1.0069
-1.19186
-1.37685
-1.56186
-1.74686
14644.2
14497
14349.9
14202.8
14055.6
13908.5
13761.3
13614.2
13467.1
13320
13172.8
13025.7
12878.6
12731.5
12584.4
12437.3
12290.2
12143
11995.9
11848.8
11701.8
11554.7
11407.6
11260.5
11113.4
10966.3
10819.2
10672.2
10525.1
10378
10231
10083.9
9936.86
9789.81
9642.76
9495.71
9348.67
9201.63
9054.59
8907.56
8760.53
8613.51
8466.49
8319.47
8172.45
8025.44
7878.43
7731.42
7584.42
7437.42
7290.42
7143.42
6996.43
6849.43
6702.44
6555.45
6408.46
6261.47
6114.49
5967.5
5820.51
5673.51
5526.52
5379.52
5232.52
5085.51
4938.5
4791.48
4644.45
4497.42
4350.37
4203.32
4056.25
3909.16
3762.06
3614.94
3467.81
3320.65
3173.47
3026.27
2879.04
2731.79
2584.5
2437.19
2289.84
2142.47
1995.06
1847.61
1700.13
1552.62
1405.07
1257.49
1109.87
962.219
814.538
666.827
519.093
371.308
223.631
75.4978
0.836519
-0.266764
-0.451403
-0.636402
-0.821388
-1.00642
-1.19149
-1.37658
-1.56169
-1.74681
14644.4
14497.2
14350.1
14202.9
14055.8
13908.6
13761.5
13614.4
13467.3
13320.1
13173
13025.9
12878.8
12731.7
12584.5
12437.4
12290.3
12143.2
11996.1
11849
11702
11554.9
11407.8
11260.7
11113.6
10966.5
10819.5
10672.4
10525.3
10378.3
10231.2
10084.2
9937.12
9790.07
9643.03
9495.99
9348.95
9201.92
9054.89
8907.87
8760.85
8613.83
8466.81
8319.8
8172.8
8025.79
7878.79
7731.8
7584.8
7437.81
7290.83
7143.84
6996.86
6849.88
6702.9
6555.92
6408.94
6261.97
6114.99
5968.02
5821.04
5674.06
5527.08
5380.1
5233.11
5086.12
4939.12
4792.12
4645.11
4498.08
4351.05
4204.01
4056.95
3909.88
3762.79
3615.68
3468.55
3321.4
3174.23
3027.03
2879.81
2732.55
2585.27
2437.95
2290.59
2143.21
1995.78
1848.32
1700.82
1553.28
1405.7
1258.09
1110.43
962.742
815.016
667.257
519.472
371.63
223.903
75.6843
0.925161
-0.265873
-0.45058
-0.63568
-0.820772
-1.00591
-1.19109
-1.3763
-1.56152
-1.74675
14644.5
14497.4
14350.2
14203.1
14055.9
13908.8
13761.7
13614.5
13467.4
13320.3
13173.2
13026.1
12878.9
12731.8
12584.7
12437.6
12290.5
12143.4
11996.3
11849.2
11702.1
11555.1
11408
11260.9
11113.8
10966.8
10819.7
10672.6
10525.6
10378.5
10231.5
10084.4
9937.37
9790.33
9643.29
9496.26
9349.23
9202.2
9055.18
8908.17
8761.15
8614.14
8467.14
8320.14
8173.14
8026.15
7879.16
7732.17
7585.19
7438.21
7291.23
7144.26
6997.29
6850.32
6703.35
6556.39
6409.42
6262.46
6115.5
5968.54
5821.58
5674.61
5527.65
5380.68
5233.71
5086.73
4939.75
4792.76
4645.77
4498.76
4351.74
4204.71
4057.67
3910.61
3763.53
3616.44
3469.32
3322.18
3175.02
3027.82
2880.6
2733.35
2586.06
2438.74
2291.38
2143.98
1996.55
1849.07
1701.54
1553.98
1406.37
1258.72
1111.03
963.3
815.527
667.717
519.877
371.975
224.194
75.8856
1.0206
-0.264887
-0.449691
-0.634904
-0.820113
-1.00537
-1.19067
-1.37599
-1.56134
-1.74669
14644.7
14497.5
14350.4
14203.2
14056.1
13909
13761.8
13614.7
13467.6
13320.5
13173.3
13026.2
12879.1
12732
12584.9
12437.8
12290.7
12143.6
11996.5
11849.4
11702.3
11555.3
11408.2
11261.1
11114
10967
10819.9
10672.8
10525.8
10378.7
10231.7
10084.7
9937.61
9790.58
9643.55
9496.52
9349.5
9202.48
9055.47
8908.46
8761.46
8614.46
8467.46
8320.47
8173.48
8026.5
7879.52
7732.54
7585.57
7438.6
7291.63
7144.67
6997.71
6850.76
6703.8
6556.85
6409.9
6262.96
6116.01
5969.06
5822.12
5675.17
5528.22
5381.27
5234.31
5087.35
4940.39
4793.42
4646.43
4499.45
4352.44
4205.43
4058.4
3911.36
3764.3
3617.22
3470.11
3322.98
3175.83
3028.64
2881.43
2734.18
2586.89
2439.57
2292.2
2144.8
1997.35
1849.85
1702.31
1554.72
1407.09
1259.4
1111.67
963.896
816.075
668.211
520.313
372.348
224.509
76.1038
1.12378
-0.263811
-0.44873
-0.634071
-0.819409
-1.0048
-1.19022
-1.37568
-1.56115
-1.74663
14644.8
14497.7
14350.5
14203.4
14056.3
13909.1
13762
13614.9
13467.7
13320.6
13173.5
13026.4
12879.3
12732.2
12585.1
12438
12290.9
12143.8
11996.7
11849.6
11702.5
11555.4
11408.4
11261.3
11114.2
10967.2
10820.1
10673.1
10526
10379
10231.9
10084.9
9937.86
9790.83
9643.8
9496.78
9349.77
9202.76
9055.75
8908.75
8761.76
8614.76
8467.78
8320.79
8173.82
8026.84
7879.87
7732.91
7585.94
7438.99
7292.03
7145.08
6998.14
6851.2
6704.26
6557.32
6410.38
6263.45
6116.52
5969.59
5822.66
5675.72
5528.79
5381.86
5234.92
5087.98
4941.03
4794.07
4647.11
4500.14
4353.16
4206.16
4059.15
3912.13
3765.08
3618.02
3470.93
3323.81
3176.67
3029.49
2882.29
2735.04
2587.76
2440.44
2293.07
2145.66
1998.2
1850.69
1703.13
1555.52
1407.85
1260.13
1112.36
964.536
816.664
668.744
520.784
372.751
224.85
76.3417
1.23582
-0.262625
-0.447685
-0.633177
-0.818658
-1.00419
-1.18975
-1.37534
-1.56095
-1.74656
14645
14497.8
14350.7
14203.5
14056.4
13909.3
13762.1
13615
13467.9
13320.8
13173.7
13026.6
12879.4
12732.3
12585.2
12438.1
12291
12144
11996.9
11849.8
11702.7
11555.6
11408.6
11261.5
11114.4
10967.4
10820.3
10673.3
10526.2
10379.2
10232.2
10085.1
9938.09
9791.07
9644.05
9497.04
9350.03
9203.03
9056.03
8909.04
8762.05
8615.07
8468.09
8321.12
8174.15
8027.18
7880.22
7733.27
7586.32
7439.37
7292.43
7145.49
6998.56
6851.63
6704.7
6557.78
6410.86
6263.94
6117.03
5970.11
5823.2
5676.28
5529.37
5382.45
5235.53
5088.61
4941.68
4794.74
4647.8
4500.85
4353.89
4206.91
4059.92
3912.91
3765.89
3618.84
3471.77
3324.67
3177.54
3030.38
2883.18
2735.95
2588.67
2441.35
2293.98
2146.57
1999.1
1851.57
1704
1556.36
1408.66
1260.91
1113.1
965.226
817.3
669.32
521.295
373.188
225.22
76.6019
1.35825
-0.261306
-0.446551
-0.63222
-0.817862
-1.00354
-1.18925
-1.37499
-1.56074
-1.74649
14645.1
14498
14350.8
14203.7
14056.6
13909.4
13762.3
13615.2
13468.1
13320.9
13173.8
13026.7
12879.6
12732.5
12585.4
12438.3
12291.2
12144.1
11997
11850
11702.9
11555.8
11408.8
11261.7
11114.6
10967.6
10820.5
10673.5
10526.4
10379.4
10232.4
10085.3
9938.33
9791.31
9644.3
9497.29
9350.29
9203.3
9056.31
8909.32
8762.34
8615.37
8468.4
8321.43
8174.47
8027.52
7880.57
7733.62
7586.69
7439.75
7292.82
7145.9
6998.98
6852.06
6705.15
6558.24
6411.33
6264.43
6117.53
5970.63
5823.74
5676.84
5529.94
5383.05
5236.15
5089.24
4942.33
4795.42
4648.5
4501.57
4354.63
4207.67
4060.71
3913.72
3766.71
3619.69
3472.63
3325.55
3178.44
3031.3
2884.11
2736.89
2589.62
2442.31
2294.94
2147.52
2000.05
1852.52
1704.92
1557.26
1409.54
1261.75
1113.89
965.971
817.988
669.945
521.85
373.663
225.624
76.883
1.49236
-0.259905
-0.445349
-0.631215
-0.817029
-1.00287
-1.18874
-1.37462
-1.56052
-1.74641
14645.3
14498.1
14351
14203.8
14056.7
13909.6
13762.4
13615.3
13468.2
13321.1
13174
13026.9
12879.8
12732.7
12585.6
12438.5
12291.4
12144.3
11997.2
11850.1
11703.1
11556
11408.9
11261.9
11114.8
10967.8
10820.7
10673.7
10526.6
10379.6
10232.6
10085.6
9938.56
9791.55
9644.54
9497.54
9350.55
9203.56
9056.58
8909.6
8762.63
8615.66
8468.7
8321.74
8174.79
8027.85
7880.91
7733.98
7587.05
7440.13
7293.21
7146.3
6999.39
6852.49
6705.59
6558.7
6411.81
6264.92
6118.03
5971.15
5824.28
5677.4
5530.52
5383.64
5236.76
5089.88
4943
4796.1
4649.21
4502.3
4355.38
4208.45
4061.51
3914.54
3767.56
3620.56
3473.53
3326.47
3179.38
3032.25
2885.09
2737.88
2590.62
2443.32
2295.96
2148.54
2001.06
1853.52
1705.91
1558.23
1410.47
1262.65
1114.75
966.778
818.736
670.626
522.456
374.182
226.068
77.1897
1.63954
-0.258508
-0.444121
-0.630182
-0.816171
-1.00218
-1.18821
-1.37425
-1.56029
-1.74634
14645.4
14498.3
14351.1
14204
14056.8
13909.7
13762.6
13615.5
13468.3
13321.2
13174.1
13027
12879.9
12732.8
12585.7
12438.6
12291.5
12144.5
11997.4
11850.3
11703.2
11556.2
11409.1
11262.1
11115
10968
10820.9
10673.9
10526.9
10379.8
10232.8
10085.8
9938.78
9791.78
9644.78
9497.78
9350.8
9203.82
9056.84
8909.87
8762.91
8615.95
8468.99
8322.05
8175.11
8028.17
7881.24
7734.32
7587.41
7440.5
7293.59
7146.69
6999.8
6852.91
6706.03
6559.15
6412.27
6265.41
6118.54
5971.68
5824.82
5677.96
5531.1
5384.25
5237.39
5090.53
4943.66
4796.79
4649.92
4503.04
4356.15
4209.24
4062.32
3915.39
3768.43
3621.46
3474.45
3327.42
3180.35
3033.25
2886.1
2738.91
2591.67
2444.38
2297.03
2149.62
2002.14
1854.59
1706.96
1559.26
1411.48
1263.62
1115.68
967.655
819.552
671.369
523.122
374.752
226.561
77.5285
1.8021
-0.257111
-0.442887
-0.629136
-0.815298
-1.00147
-1.18766
-1.37386
-1.56007
-1.74627
14645.5
14498.4
14351.3
14204.1
14057
13909.9
13762.7
13615.6
13468.5
13321.4
13174.3
13027.2
12880.1
12733
12585.9
12438.8
12291.7
12144.6
11997.5
11850.5
11703.4
11556.3
11409.3
11262.2
11115.2
10968.1
10821.1
10674.1
10527
10380
10233
10086
9939
9792
9645.01
9498.02
9351.04
9204.07
9057.1
8910.14
8763.18
8616.23
8469.29
8322.35
8175.42
8028.49
7881.57
7734.66
7587.76
7440.86
7293.97
7147.08
7000.2
6853.33
6706.46
6559.6
6412.74
6265.89
6119.05
5972.2
5825.36
5678.52
5531.69
5384.85
5238.02
5091.18
4944.34
4797.49
4650.64
4503.79
4356.92
4210.05
4063.16
3916.25
3769.33
3622.38
3475.4
3328.4
3181.36
3034.28
2887.16
2740
2592.78
2445.5
2298.17
2150.76
2003.28
1855.73
1708.1
1560.38
1412.57
1264.68
1116.69
968.611
820.443
672.187
523.854
375.382
227.109
77.9063
1.9828
-0.255691
-0.441651
-0.628081
-0.814414
-1.00076
-1.18712
-1.37348
-1.55984
-1.74619
14645.7
14498.5
14351.4
14204.3
14057.1
13910
13762.9
13615.7
13468.6
13321.5
13174.4
13027.3
12880.2
12733.1
12586
12438.9
12291.8
12144.8
11997.7
11850.6
11703.6
11556.5
11409.5
11262.4
11115.4
10968.3
10821.3
10674.3
10527.2
10380.2
10233.2
10086.2
9939.21
9792.22
9645.23
9498.25
9351.28
9204.31
9057.35
8910.39
8763.45
8616.5
8469.57
8322.64
8175.72
8028.81
7881.9
7735
7588.1
7441.22
7294.34
7147.46
7000.6
6853.74
6706.89
6560.05
6413.21
6266.37
6119.54
5972.72
5825.89
5679.08
5532.26
5385.45
5238.64
5091.83
4945.01
4798.19
4651.37
4504.55
4357.71
4210.87
4064.01
3917.14
3770.24
3623.33
3476.39
3329.42
3182.41
3035.36
2888.27
2741.14
2593.94
2446.69
2299.37
2151.98
2004.51
1856.95
1709.31
1561.58
1413.75
1265.82
1117.79
969.656
821.422
673.087
524.665
376.082
227.723
78.3311
2.18486
-0.254228
-0.440398
-0.627014
-0.813522
-1.00005
-1.18657
-1.37309
-1.55961
-1.74611
14645.8
14498.7
14351.5
14204.4
14057.2
13910.1
13763
13615.9
13468.8
13321.6
13174.5
13027.4
12880.3
12733.2
12586.2
12439.1
12292
12144.9
11997.8
11850.8
11703.7
11556.7
11409.6
11262.6
11115.5
10968.5
10821.5
10674.4
10527.4
10380.4
10233.4
10086.4
9939.42
9792.43
9645.45
9498.48
9351.51
9204.55
9057.59
8910.65
8763.71
8616.77
8469.85
8322.93
8176.02
8029.11
7882.21
7735.32
7588.44
7441.57
7294.7
7147.84
7000.99
6854.15
6707.31
6560.48
6413.66
6266.84
6120.03
5973.22
5826.43
5679.63
5532.84
5386.05
5239.26
5092.48
4945.69
4798.9
4652.11
4505.31
4358.51
4211.7
4064.88
3918.04
3771.18
3624.31
3477.4
3330.47
3183.5
3036.49
2889.43
2742.33
2595.17
2447.94
2300.64
2153.27
2005.81
1858.26
1710.62
1562.88
1415.02
1267.06
1118.99
970.802
822.499
674.081
525.566
376.861
228.412
78.8123
2.41226
-0.252708
-0.439123
-0.625932
-0.812625
-0.999327
-1.18602
-1.37271
-1.55938
-1.74604
14645.9
14498.8
14351.6
14204.5
14057.4
13910.2
13763.1
13616
13468.9
13321.8
13174.7
13027.6
12880.5
12733.4
12586.3
12439.2
12292.1
12145.1
11998
11850.9
11703.9
11556.8
11409.8
11262.7
11115.7
10968.7
10821.6
10674.6
10527.6
10380.6
10233.6
10086.6
9939.62
9792.64
9645.66
9498.7
9351.73
9204.78
9057.83
8910.89
8763.96
8617.03
8470.12
8323.21
8176.3
8029.41
7882.52
7735.64
7588.77
7441.91
7295.06
7148.22
7001.38
6854.55
6707.73
6560.91
6414.11
6267.31
6120.52
5973.73
5826.96
5680.18
5533.41
5386.65
5239.89
5093.13
4946.37
4799.61
4652.85
4506.09
4359.32
4212.55
4065.76
3918.96
3772.15
3625.31
3478.44
3331.55
3184.63
3037.66
2890.65
2743.58
2596.46
2449.26
2301.99
2154.64
2007.21
1859.67
1712.03
1564.28
1416.41
1268.42
1120.3
972.06
823.687
675.184
526.569
377.734
229.189
79.3616
2.66998
-0.251128
-0.437828
-0.624843
-0.811727
-0.998614
-1.18548
-1.37233
-1.55916
-1.74597
14646.1
14498.9
14351.8
14204.6
14057.5
13910.4
13763.2
13616.1
13469
13321.9
13174.8
13027.7
12880.6
12733.5
12586.4
12439.3
12292.3
12145.2
11998.1
11851.1
11704
11557
11409.9
11262.9
11115.9
10968.8
10821.8
10674.8
10527.8
10380.8
10233.8
10086.8
9939.81
9792.84
9645.87
9498.91
9351.95
9205
9058.06
8911.13
8764.21
8617.29
8470.38
8323.48
8176.58
8029.7
7882.82
7735.95
7589.1
7442.25
7295.41
7148.58
7001.76
6854.94
6708.13
6561.34
6414.55
6267.77
6121
5974.24
5827.48
5680.73
5533.99
5387.25
5240.52
5093.79
4947.05
4800.32
4653.6
4506.87
4360.14
4213.4
4066.66
3919.9
3773.13
3626.33
3479.52
3332.67
3185.8
3038.88
2891.91
2744.89
2597.81
2450.66
2303.43
2156.11
2008.69
1861.18
1713.55
1565.79
1417.91
1269.9
1121.74
973.446
825.001
676.41
527.693
378.716
230.068
79.9919
2.96259
-0.249488
-0.436513
-0.623744
-0.810837
-0.997917
-1.18496
-1.37197
-1.55894
-1.7459
14646.2
14499
14351.9
14204.7
14057.6
13910.5
13763.4
13616.2
13469.1
13322
13174.9
13027.8
12880.7
12733.6
12586.6
12439.5
12292.4
12145.3
11998.3
11851.2
11704.2
11557.1
11410.1
11263
11116
10969
10822
10675
10528
10381
10234
10087
9940
9793.03
9646.07
9499.11
9352.16
9205.22
9058.29
8911.36
8764.44
8617.53
8470.63
8323.74
8176.86
8029.98
7883.12
7736.26
7589.42
7442.58
7295.75
7148.93
7002.12
6855.32
6708.53
6561.75
6414.98
6268.23
6121.47
5974.73
5827.99
5681.27
5534.55
5387.84
5241.14
5094.44
4947.73
4801.03
4654.34
4507.65
4360.96
4214.27
4067.57
3920.85
3774.13
3627.39
3480.62
3333.83
3187.01
3040.14
2893.23
2746.27
2599.23
2452.13
2304.95
2157.67
2010.29
1862.79
1715.18
1567.43
1419.55
1271.51
1123.32
974.974
826.459
677.777
528.952
379.824
231.067
80.7212
3.29881
-0.247777
-0.43516
-0.622648
-0.809966
-0.997249
-1.18447
-1.37163
-1.55875
-1.74583
14646.3
14499.1
14352
14204.9
14057.7
13910.6
13763.5
13616.4
13469.2
13322.1
13175
13027.9
12880.8
12733.8
12586.7
12439.6
12292.5
12145.5
11998.4
11851.3
11704.3
11557.3
11410.2
11263.2
11116.2
10969.1
10822.1
10675.1
10528.1
10381.1
10234.1
10087.2
9940.18
9793.22
9646.26
9499.31
9352.37
9205.43
9058.5
8911.59
8764.67
8617.77
8470.88
8324
8177.12
8030.25
7883.4
7736.56
7589.72
7442.9
7296.08
7149.27
7002.48
6855.69
6708.92
6562.16
6415.41
6268.67
6121.94
5975.21
5828.5
5681.8
5535.11
5388.43
5241.75
5095.09
4948.41
4801.74
4655.09
4508.44
4361.79
4215.14
4068.49
3921.82
3775.15
3628.46
3481.76
3335.02
3188.26
3041.46
2894.61
2747.7
2600.73
2453.68
2306.55
2159.33
2011.99
1864.53
1716.95
1569.21
1421.33
1273.28
1125.06
976.664
828.08
679.306
530.372
381.082
232.21
81.5691
3.68772
-0.246013
-0.433807
-0.621584
-0.809146
-0.996639
-1.18404
-1.37134
-1.55859
-1.74578
14646.4
14499.2
14352.1
14205
14057.8
13910.7
13763.6
13616.5
13469.4
13322.3
13175.1
13028.1
12881
12733.9
12586.8
12439.7
12292.7
12145.6
11998.5
11851.5
11704.4
11557.4
11410.4
11263.3
11116.3
10969.3
10822.3
10675.3
10528.3
10381.3
10234.3
10087.3
9940.36
9793.4
9646.44
9499.5
9352.56
9205.63
9058.71
8911.8
8764.9
8618
8471.12
8324.24
8177.37
8030.52
7883.68
7736.84
7590.02
7443.2
7296.4
7149.61
7002.83
6856.06
6709.3
6562.56
6415.82
6269.1
6122.39
5975.69
5829.01
5682.33
5535.66
5389.01
5242.36
5095.72
4949.08
4802.44
4655.83
4509.22
4362.62
4216.02
4069.41
3922.8
3776.19
3629.56
3482.92
3336.25
3189.55
3042.82
2896.04
2749.2
2602.3
2455.32
2308.26
2161.09
2013.81
1866.4
1718.85
1571.15
1423.27
1275.22
1126.98
978.533
829.883
681.019
531.976
382.513
233.522
82.5658
4.139
-0.244204
-0.43232
-0.620339
-0.808145
-0.995887
-1.18351
-1.37102
-1.55842
-1.74575
14646.5
14499.3
14352.2
14205.1
14057.9
13910.8
13763.7
13616.6
13469.5
13322.4
13175.3
13028.2
12881.1
12734
12586.9
12439.8
12292.8
12145.7
11998.6
11851.6
11704.6
11557.5
11410.5
11263.5
11116.4
10969.4
10822.4
10675.4
10528.4
10381.4
10234.5
10087.5
9940.52
9793.57
9646.62
9499.68
9352.75
9205.83
9058.91
8912.01
8765.11
8618.22
8471.34
8324.48
8177.62
8030.78
7883.94
7737.12
7590.3
7443.5
7296.71
7149.94
7003.17
6856.41
6709.67
6562.94
6416.23
6269.53
6122.84
5976.16
5829.5
5682.85
5536.21
5389.58
5242.96
5096.36
4949.75
4803.14
4656.57
4510.01
4363.45
4216.89
4070.34
3923.79
3777.24
3630.67
3484.1
3337.5
3190.88
3044.22
2897.52
2750.77
2603.95
2457.05
2310.06
2162.97
2015.76
1868.41
1720.91
1573.24
1425.39
1277.34
1129.08
980.603
831.894
682.941
533.793
384.151
235.036
83.7408
4.66828
-0.243397
-0.432548
-0.621098
-0.809172
-0.996974
-1.18448
-1.37176
-1.55885
-1.74585
14646.6
14499.4
14352.3
14205.2
14058
13910.9
13763.8
13616.7
13469.6
13322.5
13175.4
13028.3
12881.2