/*--------------------------------*- C++ -*----------------------------------*\
| =========                 |                                                 |
| \\      /  F ield         | OpenFOAM: The Open Source CFD Toolbox           |
|  \\    /   O peration     | Version:  v2106                                 |
|   \\  /    A nd           | Website:  www.openfoam.com                      |
|    \\/     M anipulation  |                                                 |
\*---------------------------------------------------------------------------*/
FoamFile
{
    version     2.0;
    format      ascii;
    arch        "LSB;label=32;scalar=64";
    class       volScalarField;
    location    "0.3";
    object      p_rgh;
}
// * * * * * * * * * * * * * * * * * * * * * * * * * * * * * * * * * * * * * //

dimensions      [1 -1 -2 0 0 0 0];

internalField   nonuniform List<scalar> 
29678
(
0.0926949
0.0927987
0.0929952
0.0932601
0.093601
0.0940322
0.0945555
0.0951692
0.0958716
0.0966615
0.0975388
0.0985043
0.0995596
0.100707
0.101949
0.103288
0.104724
0.106259
0.107891
0.10962
0.111445
0.113366
0.115384
0.117499
0.119714
0.122029
0.124446
0.126965
0.129584
0.132304
0.135124
0.138046
0.14107
0.144198
0.14743
0.150766
0.154203
0.157738
0.161366
0.165086
0.168895
0.172792
0.176778
0.180852
0.185011
0.189249
0.193559
0.197932
0.202358
0.206828
0.211336
0.215874
0.220434
0.225008
0.229583
0.234144
0.238674
0.243156
0.247572
0.251903
0.256134
0.260243
0.264212
0.268017
0.27163
0.275023
0.278166
0.281026
0.283572
0.28577
0.287586
0.288985
0.289933
0.290396
0.290333
0.289711
0.288494
0.286648
0.284139
0.280938
0.277015
0.272346
0.266908
0.260683
0.253656
0.245816
0.237154
0.227665
0.217348
0.206211
0.194265
0.181532
0.168035
0.153805
0.138866
0.123231
0.107027
0.089605
0.0725804
0.0519355
0.0547158
-0.000700805
-0.00128843
-0.000199395
-0.000156837
8.58538e-06
2.66139e-05
3.53261e-05
2.58488e-05
1.00366e-05
0.277813
0.278042
0.2785
0.279213
0.280222
0.281525
0.283104
0.28495
0.287058
0.289426
0.292056
0.294949
0.298112
0.301552
0.305275
0.309287
0.313593
0.318193
0.323086
0.328268
0.333738
0.339496
0.345544
0.351887
0.358528
0.365473
0.372722
0.380275
0.388132
0.39629
0.40475
0.413515
0.42259
0.431978
0.441681
0.451696
0.462016
0.472631
0.48353
0.494703
0.506147
0.51786
0.529843
0.542093
0.554603
0.567355
0.580325
0.593488
0.606814
0.620279
0.633862
0.647543
0.6613
0.675105
0.688921
0.702703
0.7164
0.729958
0.743325
0.75645
0.769281
0.781761
0.793829
0.805413
0.816433
0.826801
0.836424
0.845207
0.85305
0.859854
0.865517
0.869933
0.872995
0.874605
0.874633
0.872977
0.869529
0.864182
0.856837
0.847397
0.835775
0.821892
0.805677
0.787072
0.766029
0.742507
0.716479
0.687928
0.656854
0.623278
0.587242
0.548809
0.508063
0.4651
0.420022
0.372904
0.324062
0.271384
0.22358
0.143232
0.14303
-0.000187864
-0.00023947
8.65627e-05
0.000192878
0.000223744
0.000202337
0.000158993
0.000100822
3.57678e-05
0.46266
0.463024
0.463764
0.464945
0.466634
0.468813
0.471449
0.474526
0.478037
0.481982
0.486361
0.49118
0.496449
0.50218
0.508385
0.515072
0.522247
0.529911
0.53806
0.546691
0.555802
0.565393
0.575469
0.586038
0.597106
0.608679
0.62076
0.633347
0.646438
0.660031
0.674129
0.688737
0.703862
0.719513
0.735689
0.752387
0.769593
0.787289
0.805459
0.824089
0.843174
0.862713
0.882706
0.903147
0.924021
0.945298
0.966939
0.988899
1.01114
1.03361
1.05629
1.07914
1.10213
1.12519
1.14828
1.17132
1.19421
1.21688
1.23924
1.26121
1.28269
1.3036
1.32383
1.34326
1.36176
1.37916
1.39533
1.4101
1.42331
1.43479
1.44438
1.45189
1.45714
1.45998
1.46018
1.45757
1.45197
1.4432
1.4311
1.4155
1.39625
1.37322
1.34628
1.31535
1.28032
1.24114
1.19774
1.15011
1.09825
1.04219
0.982015
0.917825
0.849769
0.77802
0.702776
0.624244
0.543145
0.455922
0.383023
0.24902
0.242882
0.000329456
0.000334926
0.000443113
0.000472403
0.000448857
0.000381774
0.00028915
0.00018013
6.28592e-05
0.647078
0.647583
0.64861
0.650261
0.652626
0.655678
0.659367
0.663671
0.668583
0.674099
0.680225
0.686968
0.694342
0.702363
0.711048
0.720408
0.730448
0.74117
0.752569
0.764642
0.777386
0.790804
0.804904
0.819695
0.835188
0.851387
0.868296
0.885912
0.904232
0.923256
0.942989
0.963439
0.984617
1.00653
1.02919
1.05257
1.07667
1.10145
1.1269
1.15299
1.17974
1.20712
1.23515
1.2638
1.29306
1.32289
1.35322
1.384
1.41518
1.44671
1.47853
1.51061
1.54288
1.57528
1.60771
1.64006
1.67222
1.70409
1.73553
1.76645
1.79671
1.82617
1.8547
1.88211
1.90821
1.9328
1.95566
1.97657
1.9953
2.01162
2.02529
2.03606
2.04368
2.04793
2.04847
2.04509
2.03752
2.02551
2.00881
1.98721
1.96048
1.92843
1.89089
1.84771
1.79876
1.74394
1.68317
1.61643
1.54371
1.46509
1.38065
1.29056
1.19503
1.0943
0.988668
0.878453
0.764733
0.642305
0.541338
0.351997
0.342739
0.000998332
0.000980049
0.000904582
0.0008289
0.000723041
0.000589932
0.000436308
0.000268272
9.25573e-05
0.830901
0.831549
0.832866
0.834985
0.838023
0.841943
0.846681
0.852207
0.858513
0.865598
0.873466
0.88213
0.891607
0.901917
0.913078
0.925105
0.938004
0.951775
0.966415
0.98192
0.998289
1.01553
1.03365
1.05266
1.07257
1.09339
1.11512
1.13776
1.1613
1.18575
1.21111
1.23741
1.26464
1.29282
1.32196
1.35203
1.38302
1.4149
1.44764
1.48122
1.51564
1.5509
1.58699
1.62389
1.66157
1.69997
1.73902
1.77867
1.81884
1.85947
1.90052
1.9419
1.98354
2.02535
2.0672
2.10897
2.15052
2.19169
2.23237
2.27238
2.31158
2.34978
2.38678
2.42235
2.45626
2.48822
2.51798
2.54524
2.56971
2.5911
2.6091
2.62339
2.63361
2.63954
2.64068
2.63678
2.62748
2.61247
2.59143
2.56405
2.53005
2.48917
2.44119
2.38589
2.3231
2.25268
2.17454
2.08865
1.995
1.89368
1.78483
1.66864
1.54539
1.41538
1.27901
1.13671
0.989898
0.831758
0.701628
0.456339
0.443879
0.00163422
0.00156149
0.00137218
0.00120836
0.00102208
0.000817605
0.000596917
0.000364056
0.00012465
1.01396
1.01475
1.01636
1.01895
1.02265
1.02744
1.03322
1.03996
1.04766
1.0563
1.06591
1.07649
1.08807
1.10066
1.1143
1.12898
1.14473
1.16154
1.17941
1.19834
1.21832
1.23937
1.2615
1.28472
1.30905
1.33448
1.36102
1.38867
1.41743
1.4473
1.4783
1.51043
1.54372
1.57818
1.6138
1.65057
1.68846
1.72744
1.76748
1.80858
1.85071
1.89388
1.93806
1.98324
2.02936
2.07638
2.1242
2.17276
2.22199
2.27182
2.32216
2.37295
2.42406
2.47539
2.52678
2.57809
2.62915
2.67981
2.72988
2.77919
2.82754
2.87468
2.92038
2.96436
3.0063
3.0459
3.08282
3.11671
3.14723
3.17399
3.19664
3.21476
3.22795
3.23582
3.23791
3.23382
3.22314
3.20545
3.18036
3.14749
3.1065
3.05703
2.99881
2.93155
2.85503
2.76909
2.6736
2.56852
2.45386
2.32971
2.19624
2.05369
1.90238
1.7427
1.57513
1.40022
1.21971
1.02519
0.865107
0.56315
0.547156
0.00224597
0.00212295
0.00184475
0.00160167
0.00133759
0.00105957
0.0007681
0.000466209
0.000158868
1.19609
1.19703
1.19892
1.20197
1.20634
1.21199
1.2188
1.22676
1.23584
1.24604
1.25738
1.26988
1.28355
1.29842
1.31452
1.33186
1.35044
1.37028
1.39136
1.4137
1.43729
1.46214
1.48827
1.51569
1.54442
1.57445
1.60579
1.63845
1.67241
1.7077
1.74432
1.78231
1.82166
1.86239
1.9045
1.94796
1.99276
2.03886
2.08623
2.13486
2.18474
2.23585
2.28817
2.34166
2.39628
2.45195
2.5086
2.56616
2.62453
2.68364
2.74339
2.80368
2.86438
2.92535
2.98642
3.04743
3.1082
3.16853
3.22822
3.28706
3.34479
3.40114
3.45581
3.50846
3.55875
3.60629
3.6507
3.69158
3.7285
3.76102
3.7887
3.81106
3.82761
3.83786
3.84131
3.83744
3.82577
3.8058
3.77705
3.73906
3.6914
3.63364
3.56543
3.48641
3.39633
3.29496
3.18216
3.05788
2.92212
2.77498
2.61664
2.4474
2.26761
2.07776
1.87842
1.67024
1.45529
1.22359
1.03274
0.673039
0.653168
0.0028482
0.00267745
0.00232188
0.00200463
0.00166485
0.00131244
0.000947808
0.000573744
0.000194974
1.37713
1.3782
1.38038
1.38389
1.38893
1.39542
1.40327
1.41242
1.42288
1.43464
1.44771
1.46211
1.47788
1.49502
1.51357
1.53354
1.55495
1.5778
1.60208
1.62782
1.655
1.68364
1.71376
1.74537
1.77848
1.8131
1.84923
1.88687
1.92604
1.96674
2.00899
2.05282
2.09823
2.14524
2.19384
2.24401
2.29572
2.34895
2.40368
2.45987
2.51753
2.57661
2.63711
2.69897
2.76213
2.82652
2.89207
2.9587
3.02631
3.09481
3.16408
3.23401
3.30443
3.37519
3.44612
3.51702
3.58769
3.65793
3.7275
3.79612
3.86353
3.92938
3.99332
4.05499
4.11397
4.16984
4.22215
4.27043
4.31419
4.35292
4.38611
4.41318
4.43357
4.44671
4.45201
4.44886
4.43669
4.41491
4.38296
4.34028
4.28635
4.22066
4.14276
4.05225
3.9488
3.83215
3.70213
3.55863
3.40167
3.23134
3.04785
2.85151
2.64276
2.42214
2.19034
1.9481
1.69786
1.428
1.20548
0.78662
0.762507
0.00345258
0.00323374
0.00280594
0.00241684
0.00200236
0.00157478
0.001135
0.000686035
0.000232765
1.55689
1.55811
1.56057
1.56454
1.57022
1.57756
1.58643
1.59679
1.60862
1.62192
1.63672
1.65302
1.67087
1.69027
1.71126
1.73386
1.75808
1.78392
1.81139
1.8405
1.87126
1.90368
1.93778
1.97356
2.01103
2.05022
2.09111
2.13374
2.17809
2.2242
2.27208
2.32176
2.37323
2.42652
2.48161
2.53849
2.59713
2.65751
2.71961
2.7834
2.84887
2.91597
2.98469
3.05496
3.12672
3.19991
3.27445
3.35025
3.4272
3.50521
3.58413
3.66382
3.74412
3.82485
3.90582
3.98683
4.06767
4.14808
4.2278
4.30652
4.38391
4.4596
4.53319
4.60425
4.67234
4.73697
4.79764
4.85381
4.90493
4.95041
4.98965
5.022
5.0468
5.0634
5.07115
5.06931
5.05721
5.03419
4.99958
4.95272
4.89299
4.8198
4.7326
4.63092
4.51437
4.38262
4.23546
4.07276
3.89449
3.70075
3.49177
3.26788
3.02959
2.77752
2.51245
2.23524
1.94869
1.63953
1.38432
0.90455
0.875802
0.00406739
0.0037986
0.00330049
0.00283998
0.00235058
0.00184644
0.00132921
0.000802595
0.000272025
1.7352
1.73657
1.73931
1.74373
1.75007
1.75824
1.76813
1.77968
1.79287
1.80772
1.82423
1.84243
1.86234
1.884
1.90742
1.93262
1.95963
1.98845
2.01909
2.05157
2.08589
2.12207
2.16011
2.20004
2.24186
2.28559
2.33124
2.37883
2.42837
2.47988
2.53339
2.58891
2.64645
2.70601
2.7676
2.83119
2.89677
2.96431
3.03381
3.10523
3.17854
3.25371
3.33069
3.40943
3.48987
3.57194
3.65555
3.74062
3.82704
3.91468
4.00339
4.09301
4.18336
4.27425
4.3655
4.45687
4.54813
4.63901
4.72919
4.81834
4.90607
4.99198
5.07563
5.15653
5.2342
5.3081
5.37766
5.44229
5.50135
5.55419
5.60011
5.63838
5.66826
5.68899
5.69989
5.70002
5.68867
5.66506
5.62842
5.57798
5.51301
5.43282
5.33678
5.22433
5.09499
4.94839
4.78422
4.60232
4.40263
4.18525
3.9504
3.69845
3.42997
3.14567
2.84641
2.53318
2.20916
1.85938
1.5703
1.02752
0.993731
0.00469882
0.00437829
0.00380965
0.0032767
0.00271094
0.00212791
0.00153014
0.000922902
0.00031253
1.91191
1.91341
1.91644
1.92131
1.92828
1.93729
1.94819
1.96092
1.97547
1.99185
2.01007
2.03016
2.05213
2.07602
2.10185
2.12965
2.15943
2.19121
2.22501
2.26083
2.29869
2.3386
2.38057
2.42462
2.47076
2.51902
2.56941
2.62194
2.67666
2.73357
2.7927
2.85406
2.91766
2.9835
3.05157
3.12188
3.19441
3.26914
3.34606
3.42514
3.50633
3.5896
3.67491
3.76218
3.85137
3.9424
4.03519
4.12965
4.22565
4.32305
4.4217
4.52141
4.62201
4.7233
4.82506
4.92707
5.02906
5.13073
5.23172
5.33166
5.43014
5.52669
5.62085
5.7121
5.79988
5.88361
5.96266
6.03638
6.10405
6.16493
6.21825
6.26318
6.29889
6.32447
6.3394
6.34224
6.33241
6.30898
6.27104
6.21772
6.14816
6.06158
5.95725
5.83449
5.69276
5.53156
5.35055
5.14949
4.92829
4.68701
4.42588
4.14533
3.84594
3.52851
3.19402
2.84357
2.48076
2.08885
1.76456
1.15633
1.11702
0.00535174
0.00497892
0.00433759
0.00373005
0.00308501
0.00241974
0.00173814
0.00104687
0.00035407
2.08683
2.08847
2.09178
2.09709
2.1047
2.11454
2.12644
2.14035
2.15625
2.17415
2.19407
2.21603
2.24005
2.26616
2.29438
2.32476
2.35729
2.39202
2.42894
2.46809
2.50946
2.55308
2.59895
2.6471
2.69754
2.75029
2.8054
2.86287
2.92275
2.98505
3.04979
3.11698
3.18663
3.25875
3.33332
3.41035
3.48984
3.57178
3.65614
3.74289
3.83201
3.92343
4.0171
4.11298
4.211
4.31109
4.41316
4.51712
4.62283
4.73014
4.83889
4.94888
5.05995
5.17187
5.28443
5.39738
5.51042
5.62321
5.73539
5.84652
5.95617
6.06385
6.16903
6.27117
6.36965
6.46384
6.55306
6.63657
6.71358
6.78328
6.84479
6.89722
6.93963
6.97106
6.99061
6.99717
6.98977
6.96739
6.929
6.8736
6.80023
6.70798
6.59599
6.4635
6.30982
6.13438
5.93674
5.71659
5.47378
5.20836
4.92055
4.61078
4.27969
3.92815
3.55724
3.16823
2.7651
2.32932
1.96831
1.29187
1.24649
0.00603186
0.00560449
0.00488778
0.0042012
0.00347342
0.00272335
0.00195552
0.00117629
0.000396857
2.2598
2.26158
2.26515
2.27091
2.27916
2.28981
2.30271
2.31778
2.33502
2.35444
2.37605
2.39986
2.42592
2.45423
2.48484
2.51776
2.55304
2.59068
2.63071
2.67315
2.71801
2.76531
2.81505
2.86727
2.92198
2.97921
3.03901
3.10141
3.16644
3.23411
3.30445
3.37746
3.45316
3.53153
3.6126
3.69636
3.78283
3.87198
3.9638
4.05827
4.15533
4.25494
4.35705
4.4616
4.56853
4.67777
4.78924
4.90282
5.01837
5.13574
5.25476
5.37525
5.49701
5.61984
5.74349
5.86768
5.99211
6.1164
6.24016
6.36292
6.48423
6.60354
6.72031
6.83394
6.94377
7.04912
7.14924
7.24331
7.33048
7.40985
7.48045
7.54129
7.59136
7.62957
7.65485
7.66611
7.66212
7.64177
7.6039
7.54736
7.47107
7.37398
7.2551
7.11353
6.94846
6.7592
6.54521
6.3061
6.04165
5.75185
5.43691
5.09727
4.73361
4.34686
3.93823
3.50911
3.06395
2.58231
2.18288
1.43513
1.38304
0.00674486
0.00625871
0.00546281
0.00469208
0.00387869
0.00304122
0.00218406
0.00131307
0.000442074
2.43064
2.43256
2.4364
2.44259
2.45147
2.46294
2.47683
2.49306
2.51163
2.53255
2.55583
2.58149
2.60956
2.64006
2.67303
2.70849
2.74648
2.78702
2.83013
2.87584
2.92415
2.97509
3.02868
3.08493
3.14388
3.20558
3.27005
3.33735
3.4075
3.48053
3.55645
3.63527
3.71699
3.80163
3.88919
3.97969
4.07313
4.16951
4.26882
4.37102
4.47606
4.58391
4.69451
4.8078
4.92373
5.04222
5.16318
5.2865
5.41203
5.53963
5.66912
5.80032
5.93303
6.06703
6.20207
6.33785
6.47402
6.6102
6.74596
6.88083
7.0143
7.14581
7.27477
7.40055
7.52245
7.63971
7.75152
7.85701
7.95523
8.0452
8.12587
8.19616
8.25494
8.30103
8.33318
8.35026
8.35081
8.33362
8.29737
8.24077
8.16259
8.06163
7.93674
7.78688
7.61109
7.40855
7.17859
6.92071
6.63461
6.32022
5.97771
5.60751
5.21033
4.78718
4.33935
3.86838
3.37923
2.84948
2.40968
1.58718
1.52768
0.00749624
0.00694535
0.00606612
0.00520753
0.004305
0.00337586
0.00242487
0.00145797
0.00049055
2.59919
2.60124
2.60536
2.61198
2.62148
2.63376
2.64862
2.66601
2.6859
2.70831
2.73325
2.76074
2.7908
2.82347
2.85878
2.89675
2.93743
2.98084
3.02701
3.07595
3.12769
3.18224
3.23963
3.29989
3.36306
3.42918
3.49831
3.57049
3.64574
3.7241
3.80557
3.89017
3.97791
4.06879
4.16284
4.26008
4.36051
4.46414
4.57094
4.68089
4.79396
4.91008
5.02922
5.15133
5.27633
5.40417
5.53473
5.66792
5.80358
5.94157
6.08173
6.22387
6.36779
6.51325
6.65999
6.80769
6.95598
7.10446
7.25269
7.40016
7.54634
7.69065
7.83247
7.97111
8.10582
8.23581
8.36019
8.47801
8.58825
8.68985
8.78168
8.86255
8.93123
8.98641
9.02672
9.0508
9.05718
9.04443
9.01106
8.95564
8.87676
8.77305
8.6432
8.48598
8.30028
8.08511
7.83966
7.5633
7.25562
6.91646
6.54594
6.14446
5.71276
5.25188
4.76321
4.24845
3.71311
3.13256
2.65014
1.74928
1.68153
0.00829277
0.00767026
0.00670298
0.00575221
0.0047558
0.00372988
0.00267974
0.00161171
0.000542192
2.76528
2.76746
2.77185
2.7789
2.78902
2.8021
2.81793
2.83646
2.85766
2.88154
2.90812
2.93742
2.96947
3.00428
3.04191
3.08237
3.12571
3.17196
3.22115
3.27329
3.32842
3.38654
3.44771
3.51194
3.5793
3.64983
3.72358
3.80061
3.88093
3.96459
4.05159
4.14194
4.23567
4.33279
4.43333
4.5373
4.64472
4.7556
4.86991
4.98764
5.10875
5.23319
5.36093
5.49191
5.62607
5.76334
5.90362
6.0468
6.19274
6.34132
6.49235
6.64567
6.80106
6.95827
7.11703
7.277
7.4378
7.59901
7.76018
7.92078
8.08026
8.23801
8.39338
8.54564
8.694
8.83758
8.97546
9.1066
9.22992
9.34428
9.44845
9.54114
9.62102
9.68663
9.73646
9.76897
9.78262
9.77571
9.74665
9.69381
9.6156
9.51045
9.37685
9.21339
9.01874
8.79176
8.53143
8.23698
7.90787
7.54383
7.14488
6.71139
6.24408
5.74406
5.21275
4.65196
4.06804
3.43346
2.90564
1.92278
1.84585
0.0091417
0.00844081
0.00737944
0.00633062
0.00523423
0.00410519
0.00294977
0.00177534
0.000597438
2.92874
2.93106
2.93571
2.94318
2.95392
2.96779
2.98459
3.00424
3.02673
3.05207
3.08028
3.11137
3.14537
3.18231
3.22223
3.26516
3.31114
3.3602
3.41237
3.46768
3.52615
3.58782
3.65272
3.7209
3.79242
3.86732
3.94566
4.0275
4.11286
4.20177
4.29426
4.39035
4.49005
4.59339
4.70039
4.8111
4.92551
5.04364
5.16547
5.29099
5.42017
5.55297
5.68935
5.82927
5.97266
6.11945
6.26955
6.42285
6.57924
6.73858
6.9007
7.06543
7.23255
7.40181
7.57291
7.74551
7.91923
8.09363
8.26823
8.44252
8.61592
8.78779
8.95745
9.12413
9.28699
9.44511
9.59748
9.74302
9.88056
10.0089
10.1267
10.2326
10.3251
10.4026
10.4634
10.5059
10.5284
10.529
10.5058
10.4572
10.3812
10.2761
10.1402
9.97179
9.76937
9.53154
9.25711
8.94511
8.59482
8.20584
7.77808
7.31185
6.80778
6.2672
5.69149
5.08222
4.4466
3.75451
3.17766
2.10926
2.02208
0.0100339
0.00926415
0.00810139
0.00694703
0.0057429
0.00450311
0.00323537
0.00194828
0.000655799
3.08942
3.09187
3.09678
3.10468
3.11602
3.13068
3.14843
3.16919
3.19296
3.21974
3.24955
3.28241
3.31834
3.35739
3.39957
3.44494
3.49352
3.54535
3.60047
3.65891
3.7207
3.78587
3.85448
3.92657
4.0022
4.08144
4.16434
4.25094
4.34129
4.43543
4.53337
4.63515
4.74079
4.85033
4.9638
5.08122
5.20262
5.328
5.45735
5.59068
5.72794
5.86913
6.01419
6.1631
6.31579
6.47219
6.63222
6.79579
6.96277
7.13305
7.30647
7.48285
7.66197
7.84356
8.02734
8.21294
8.39998
8.58803
8.7766
8.96516
9.15311
9.33982
9.52454
9.70649
9.88477
10.0584
10.2263
10.3874
10.5404
10.6841
10.8169
10.9374
11.0441
11.1351
11.2087
11.2629
11.2959
11.3057
11.2903
11.2477
11.1757
11.0724
10.9358
10.764
10.5552
10.3077
10.0201
9.69126
9.32019
8.90636
8.44948
7.94991
7.40814
6.82507
6.20246
5.54223
4.85182
4.09974
3.46928
2.31057
2.21182
0.0110194
0.0101524
0.00887676
0.00760584
0.00628416
0.00492487
0.00353703
0.00212983
0.000716721
3.24716
3.24973
3.2549
3.26322
3.27516
3.29059
3.30928
3.33115
3.35617
3.38437
3.41576
3.45036
3.48821
3.52933
3.57375
3.62152
3.67267
3.72725
3.78528
3.8468
3.91186
3.98051
4.05278
4.12875
4.20846
4.29199
4.3794
4.47073
4.56603
4.66533
4.76869
4.87612
4.98768
5.10339
5.22329
5.34741
5.47578
5.6084
5.74527
5.8864
6.03177
6.18136
6.33515
6.49309
6.65514
6.82124
6.9913
7.16526
7.343
7.5244
7.70932
7.89758
8.08895
8.28318
8.47996
8.67894
8.87974
9.08191
9.28499
9.48841
9.6916
9.89387
10.0945
10.2926
10.4872
10.6774
10.862
11.0399
11.2097
11.37
11.5194
11.6562
11.7786
11.8849
11.973
12.0409
12.0864
12.1075
12.1019
12.0673
12.0014
11.9019
11.7665
11.593
11.3794
11.1237
10.8241
10.4794
10.0881
9.64971
9.16371
8.62983
8.04872
7.42137
6.7497
6.03613
5.28809
4.47298
3.78382
2.52881
2.41693
0.0120953
0.0111142
0.00970982
0.00830977
0.00685968
0.00537166
0.00385573
0.00232113
0.000780695
3.40179
3.40449
3.40992
3.41865
3.43118
3.44738
3.46699
3.48994
3.5162
3.54579
3.57874
3.61506
3.65479
3.69795
3.74459
3.79473
3.84841
3.90569
3.96659
4.03117
4.09946
4.17153
4.24744
4.32723
4.41099
4.49877
4.59063
4.68664
4.78683
4.89126
4.99998
5.11303
5.23046
5.35231
5.47861
5.6094
5.74471
5.88455
6.02894
6.17787
6.33135
6.48936
6.65189
6.81891
6.99038
7.16625
7.34646
7.53092
7.71956
7.91225
8.10886
8.30922
8.51311
8.72026
8.93038
9.14313
9.35811
9.57491
9.79304
10.012
10.2311
10.4496
10.6669
10.8821
11.0941
11.302
11.5045
11.7004
11.8884
12.0669
12.2345
12.3892
12.5293
12.6527
12.7574
12.841
12.9013
12.9359
12.9423
12.9181
12.8605
12.7671
12.635
12.462
12.2455
11.9832
11.6732
11.3136
10.9032
10.4406
9.92485
9.35587
8.73436
8.06147
7.33875
6.56871
5.75941
4.87635
4.12452
2.76673
2.63961
0.0132809
0.0121589
0.0106047
0.00906084
0.00747021
0.0058439
0.00419184
0.00252251
0.000847895
3.55316
3.55599
3.56167
3.57081
3.58392
3.60087
3.6214
3.6454
3.67288
3.70385
3.73833
3.77634
3.81792
3.8631
3.9119
3.96438
4.02056
4.0805
4.14423
4.21181
4.28331
4.35876
4.43825
4.52183
4.60958
4.70156
4.79783
4.89845
5.00349
5.113
5.22703
5.34565
5.4689
5.59684
5.72951
5.86693
6.00915
6.15618
6.30805
6.46477
6.62635
6.79279
6.96409
7.14023
7.32117
7.50688
7.69731
7.89239
8.09205
8.2962
8.50469
8.71737
8.93401
9.15438
9.37818
9.60507
9.83468
10.0666
10.3003
10.5354
10.7711
11.0067
11.2416
11.4747
11.7052
11.9318
12.1535
12.3689
12.5765
12.7749
12.9623
13.1369
13.2965
13.4392
13.5625
13.6642
13.7417
13.7923
13.8134
13.8021
13.7554
13.6705
13.5444
13.3741
13.157
12.8902
12.5717
12.199
11.7702
11.2835
10.7383
10.1342
9.47146
8.75101
7.97456
7.14468
6.26996
5.31315
4.495
3.02695
2.88265
0.0146003
0.0132927
0.0115613
0.00985696
0.00811385
0.00634014
0.0045442
0.00273325
0.000918051
3.70112
3.70408
3.71001
3.71955
3.73323
3.75092
3.77233
3.79738
3.82605
3.85837
3.89435
3.93403
3.97743
4.02458
4.07552
4.13029
4.18893
4.25149
4.31801
4.38856
4.4632
4.542
4.62503
4.71235
4.80403
4.90015
5.00077
5.10596
5.21578
5.33031
5.44961
5.57374
5.70276
5.83674
5.97571
6.11972
6.2688
6.42299
6.58231
6.74679
6.91646
7.09133
7.2714
7.45667
7.64712
7.84273
8.04346
8.24926
8.46007
8.67581
8.89636
9.12156
9.35121
9.58508
9.82287
10.0643
10.309
10.5565
10.8064
11.0582
11.3112
11.5647
11.818
12.0701
12.32
12.5667
12.8088
13.0451
13.274
13.4939
13.703
13.8993
14.0806
14.2447
14.3892
14.5115
14.6088
14.6781
14.7167
14.7212
14.6884
14.615
14.4976
14.3329
14.1178
13.8493
13.5244
13.1401
12.6942
12.1848
11.6106
10.9709
10.2658
9.49594
8.66306
7.76971
6.82512
5.78795
4.89897
3.308
3.14883
0.0160014
0.0144947
0.0125667
0.0106899
0.00878525
0.00685656
0.00491013
0.00295168
0.000990609
3.84553
3.8486
3.85478
3.86471
3.87895
3.89736
3.91965
3.94572
3.97556
4.00919
4.04665
4.08796
4.13314
4.18224
4.23527
4.2923
4.35335
4.41848
4.48775
4.56122
4.63897
4.72106
4.80757
4.89858
4.99414
5.09435
5.19926
5.30895
5.42349
5.54298
5.66747
5.79705
5.93179
6.07174
6.21695
6.36748
6.52337
6.68466
6.85139
7.02361
7.20134
7.38462
7.57347
7.76788
7.96786
8.17341
8.38449
8.6011
8.82317
9.05063
9.2834
9.52131
9.76419
10.0118
10.2639
10.5203
10.7804
11.044
11.3107
11.5798
11.8509
12.1231
12.3956
12.6677
12.9382
13.2061
13.47
13.7287
13.9804
14.2236
14.4563
14.6764
14.8817
15.0697
15.238
15.3836
15.5036
15.5948
15.6539
15.6775
15.6618
15.6031
15.4977
15.3421
15.1325
14.8651
14.5362
14.1427
13.6816
13.1506
12.5479
11.8725
11.1241
10.3031
9.41111
8.45056
7.43142
6.30693
5.34329
3.61471
3.44139
0.0173983
0.0157226
0.0135994
0.0115478
0.00947679
0.00738794
0.00528607
0.00317572
0.00106486
3.98622
3.98942
3.99583
4.00614
4.02093
4.04004
4.06318
4.09025
4.12124
4.15617
4.19507
4.23797
4.2849
4.33589
4.39098
4.45021
4.51363
4.58129
4.65326
4.72961
4.81041
4.89575
4.98569
5.08032
5.17971
5.28393
5.39306
5.50719
5.6264
5.75077
5.8804
6.01536
6.15573
6.30158
6.45296
6.60994
6.77257
6.9409
7.11499
7.29489
7.48065
7.67231
7.86991
8.07346
8.28299
8.49849
8.71998
8.94745
9.18087
9.42018
9.6653
9.9161
10.1724
10.4341
10.7008
10.9724
11.2484
11.5286
11.8126
12.0997
12.3894
12.6811
12.9738
13.2668
13.559
13.8494
14.1365
14.4191
14.6954
14.9637
15.222
15.4682
15.6998
15.9144
16.1092
16.2812
16.4271
16.5435
16.6267
16.6728
16.678
16.6379
16.5487
16.4061
16.2056
15.9426
15.6129
15.2126
14.7384
14.1874
13.5572
12.8464
12.054
11.1803
10.2265
9.19497
8.09658
6.87735
5.83556
3.95352
3.76488
0.018795
0.0169555
0.014645
0.0124209
0.0101815
0.00792915
0.00566852
0.00340338
0.00114027
4.12306
4.12637
4.13302
4.1437
4.15902
4.17882
4.2028
4.23084
4.26294
4.29913
4.33944
4.3839
4.43253
4.48538
4.54248
4.60387
4.66961
4.73976
4.81438
4.89355
4.97736
5.06588
5.15919
5.25738
5.36052
5.46869
5.58198
5.70048
5.82428
5.95347
6.08815
6.22841
6.37433
6.52599
6.68346
6.8468
7.01609
7.19139
7.37277
7.5603
7.75403
7.95404
8.16035
8.37302
8.59208
8.81755
9.04948
9.28786
9.53269
9.78393
10.0415
10.3054
10.5753
10.8512
11.1328
11.42
11.7123
12.0096
12.3113
12.617
12.9261
13.238
13.5518
13.8667
14.1818
14.4958
14.8076
15.1156
15.4183
15.7136
15.9997
16.2743
16.5349
16.7788
17.0032
17.2047
17.38
17.5252
17.6363
17.7091
17.7393
17.7226
17.6543
17.5291
17.3416
17.0866
16.7595
16.3558
15.8713
15.3025
14.6464
13.9007
13.0641
12.1364
11.1183
10.012
8.82945
7.50749
6.38403
4.33131
4.12469
0.0202149
0.0181937
0.0157002
0.0133045
0.0108945
0.008476
0.00605447
0.00363298
0.00121627
4.25591
4.25933
4.2662
4.27724
4.29308
4.31355
4.33833
4.36732
4.40052
4.43794
4.47962
4.52559
4.57589
4.63055
4.68961
4.75311
4.82112
4.8937
4.97092
5.05287
5.13962
5.23127
5.32789
5.42956
5.53638
5.64843
5.7658
5.88859
6.0169
6.15082
6.29047
6.43594
6.58732
6.7447
6.90815
7.07777
7.25363
7.43581
7.62441
7.81949
8.02114
8.22942
8.4444
8.66614
8.89471
9.13015
9.37251
9.62182
9.87811
10.1414
10.4115
10.6885
10.9722
11.2626
11.5594
11.8624
12.1714
12.4861
12.8061
13.1309
13.4601
13.7929
14.1287
14.4666
14.8056
15.1447
15.4825
15.8176
16.1483
16.4727
16.7888
17.0942
17.3865
17.6627
17.9199
18.1545
18.3628
18.5408
18.6841
18.7882
18.8488
18.8608
18.818
18.7146
18.5445
18.3022
17.982
17.5788
17.0876
16.5039
15.824
15.0447
14.1642
13.1815
12.0968
10.9118
9.64019
8.2068
6.99775
4.75607
4.52721
0.0216779
0.0194458
0.0167673
0.0141964
0.0116119
0.00902482
0.00644114
0.00386286
0.00129231
4.38462
4.38815
4.39524
4.40663
4.42297
4.44408
4.46965
4.49956
4.53382
4.57244
4.61545
4.6629
4.71481
4.77123
4.8322
4.89777
4.968
5.04296
5.12273
5.20738
5.29702
5.39172
5.49158
5.59667
5.70709
5.82294
5.94431
6.0713
6.20403
6.3426
6.48712
6.6377
6.79444
6.95742
7.12676
7.30255
7.48488
7.67386
7.86957
8.07212
8.2816
8.49808
8.72166
8.95241
9.19044
9.4358
9.68859
9.94884
10.2166
10.4919
10.7747
11.0649
11.3626
11.6675
11.9797
12.2989
12.6248
12.9574
13.2961
13.6406
13.9904
14.3449
14.7035
15.0653
15.4294
15.7948
16.1601
16.5238
16.8844
17.2399
17.5883
17.9272
18.254
18.5657
18.859
19.1305
19.3759
19.5911
19.7716
19.9127
20.0092
20.0549
20.0426
19.9661
19.8189
19.5946
19.2867
18.8889
18.3952
17.8004
17.0995
16.2887
15.365
14.3268
13.1735
11.9063
10.5406
8.98632
7.6871
5.23727
4.98031
0.0231987
0.0207205
0.0178478
0.0150938
0.0123297
0.00957147
0.00682526
0.00409084
0.00136757
4.50906
4.5127
4.52
4.53172
4.54854
4.57029
4.59662
4.62742
4.6627
4.70248
4.74679
4.79567
4.84916
4.90729
4.97011
5.03769
5.11008
5.18737
5.26962
5.35693
5.44938
5.54707
5.65008
5.75851
5.87245
5.99201
6.11729
6.24839
6.38545
6.52856
6.67785
6.83343
6.99541
7.16389
7.339
7.52085
7.70955
7.90521
8.10794
8.31785
8.53504
8.75963
8.99171
9.23141
9.47882
9.73405
9.99721
10.2684
10.5476
10.8349
11.1304
11.4339
11.7456
12.0653
12.393
12.7285
13.0717
13.4224
13.7803
14.1449
14.516
14.893
15.2751
15.6618
16.0521
16.4449
16.8391
17.2332
17.6255
18.0142
18.3973
18.7723
19.1365
19.4869
19.8201
20.1323
20.4193
20.6768
20.9004
21.0844
21.2221
21.3064
21.3306
21.2875
21.1697
20.9698
20.6802
20.2935
19.8028
19.2014
18.4834
17.6438
16.6785
15.585
14.3618
13.0088
11.5442
9.8591
8.46408
5.78655
5.49396
0.0247786
0.0220159
0.0189392
0.0159917
0.0130418
0.0101103
0.00720187
0.00431343
0.00144071
4.6291
4.63284
4.64034
4.65239
4.66967
4.69202
4.71909
4.75076
4.78703
4.82794
4.8735
4.92376
4.97877
5.03856
5.10319
5.17272
5.24722
5.32677
5.41144
5.50133
5.59653
5.69712
5.80321
5.91489
6.03226
6.15543
6.28452
6.41964
6.56091
6.70846
6.8624
7.02286
7.18996
7.36383
7.5446
7.73238
7.92733
8.12955
8.33917
8.55631
8.78111
9.01368
9.25416
9.50268
9.75939
10.0244
10.2979
10.5799
10.8705
11.1699
11.478
11.7949
12.1206
12.4551
12.7985
13.1505
13.5112
13.8803
14.2577
14.6429
15.0358
15.4358
15.8423
16.2547
16.6722
17.0938
17.5182
17.9442
18.3702
18.7942
19.2143
19.6281
20.0328
20.4254
20.8022
21.1594
21.493
21.7988
22.0712
22.3033
22.4879
22.6176
22.6851
22.6827
22.6017
22.4336
22.1695
21.801
21.3195
20.7173
19.9871
19.1225
18.1183
16.9705
15.6764
14.2348
12.667
10.8406
9.34283
6.41686
6.07763
0.0264185
0.0233307
0.0200369
0.0168822
0.0137393
0.0106321
0.00756317
0.00452514
0.0015096
4.74461
4.74845
4.75614
4.76849
4.78623
4.80916
4.83693
4.86944
4.90668
4.94866
4.99544
5.04704
5.10352
5.16492
5.2313
5.30273
5.37927
5.46101
5.54804
5.64043
5.73829
5.84171
5.95078
6.06562
6.18632
6.31301
6.4458
6.58483
6.7302
6.88206
7.04054
7.20575
7.37785
7.55697
7.74325
7.93685
8.1379
8.34654
8.56291
8.78716
9.01941
9.25983
9.50857
9.7658
10.0317
10.3064
10.59
10.8828
11.1848
11.496
11.8168
12.147
12.4868
12.8362
13.1952
13.564
13.9422
14.33
14.7271
15.1334
15.5485
15.9721
16.4037
16.8427
17.2883
17.7397
18.1958
18.6553
19.1166
19.5781
20.0377
20.493
20.9413
21.3796
21.804
22.2111
22.5972
22.9569
23.2833
23.5692
23.8075
23.9903
24.1091
24.1558
24.1199
23.992
23.7619
23.4197
22.9553
22.3594
21.6231
20.7386
19.6991
18.4991
17.1344
15.6022
13.9275
11.9493
10.3424
7.14542
6.74784
0.0281292
0.0246838
0.0211331
0.0177527
0.0144071
0.0111227
0.00789749
0.00471843
0.00157136
4.85546
4.8594
4.86726
4.87992
4.89808
4.92157
4.95003
4.98334
5.0215
5.06453
5.11247
5.16537
5.22327
5.28622
5.35429
5.42755
5.50608
5.58995
5.67925
5.77407
5.8745
5.98065
6.09262
6.21051
6.33444
6.46454
6.60092
6.74373
6.89309
7.04914
7.21201
7.38184
7.5588
7.74303
7.9347
8.13396
8.34097
8.55588
8.77884
9.01002
9.24957
9.49768
9.75453
10.0203
10.2952
10.5794
10.8731
11.1765
11.4897
11.8128
12.1461
12.4895
12.8433
13.2076
13.5824
13.9678
14.3638
14.7704
15.1875
15.615
16.0528
16.5004
16.9576
17.4239
17.8986
18.3809
18.8699
19.3644
19.8629
20.3639
20.8653
21.365
21.8601
22.3475
22.8241
23.2867
23.7307
24.1491
24.5353
24.8821
25.182
25.4261
25.6054
25.7098
25.7289
25.6512
25.465
25.1587
24.7206
24.1395
23.4048
22.5069
21.4371
20.1884
18.7547
17.1309
15.3475
13.2066
11.4851
7.99489
7.52346
0.0298931
0.0260367
0.0221975
0.0185732
0.0150169
0.0115581
0.0081873
0.00488304
0.00162226
4.96154
4.96556
4.9736
4.98654
5.00511
5.02914
5.05826
5.09234
5.13138
5.17542
5.22448
5.27862
5.33789
5.40234
5.47204
5.54707
5.6275
5.71342
5.80492
5.90208
6.005
6.11378
6.22854
6.34938
6.47643
6.60982
6.74968
6.89615
7.04936
7.20945
7.37658
7.5509
7.73257
7.92176
8.11865
8.32342
8.53622
8.75722
8.98661
9.22454
9.47122
9.72683
9.9916
10.2657
10.5495
10.843
11.1466
11.4604
11.7847
12.1195
12.4651
12.8217
13.1894
13.5685
13.959
14.3611
14.7748
15.2003
15.6375
16.0865
16.5471
17.0193
17.5026
17.9968
18.5013
19.0155
19.5385
20.0694
20.6068
21.1492
21.6948
22.2415
22.7865
23.327
23.8609
24.3841
24.8904
25.3732
25.8261
26.2415
26.6113
26.9261
27.1756
27.3485
27.4334
27.4173
27.2866
27.0276
26.6266
26.0705
25.3466
24.4433
23.3501
22.0578
20.5585
18.8437
16.9514
14.6384
12.7967
8.98996
8.424
0.0317021
0.0275238
0.0234426
0.0195736
0.0157697
0.0120811
0.00851349
0.00504955
0.00165991
5.06272
5.06683
5.07504
5.08824
5.10721
5.13175
5.16149
5.19631
5.2362
5.2812
5.33134
5.38668