/*--------------------------------*- C++ -*----------------------------------*\
| =========                 |                                                 |
| \\      /  F ield         | OpenFOAM: The Open Source CFD Toolbox           |
|  \\    /   O peration     | Version:  v2106                                 |
|   \\  /    A nd           | Website:  www.openfoam.com                      |
|    \\/     M anipulation  |                                                 |
\*---------------------------------------------------------------------------*/
FoamFile
{
    version     2.0;
    format      ascii;
    arch        "LSB;label=32;scalar=64";
    class       surfaceScalarField;
    location    "0.3";
    object      phi;
}
// * * * * * * * * * * * * * * * * * * * * * * * * * * * * * * * * * * * * * //

dimensions      [0 3 -1 0 0 0 0];

oriented        oriented;

internalField   nonuniform List<scalar> 
59425
(
-7.59858e-11
-1.21157e-07
-1.62442e-10
-1.21464e-07
-2.55305e-10
-1.2168e-07
-3.49119e-10
-1.21989e-07
-4.42508e-10
-1.22413e-07
-5.35179e-10
-1.22968e-07
-6.27233e-10
-1.2365e-07
-7.18989e-10
-1.24453e-07
-8.10761e-10
-1.25374e-07
-9.02771e-10
-1.26412e-07
-9.9516e-10
-1.27568e-07
-1.08802e-09
-1.28843e-07
-1.18143e-09
-1.30236e-07
-1.27541e-09
-1.31749e-07
-1.37003e-09
-1.33382e-07
-1.4653e-09
-1.35136e-07
-1.56122e-09
-1.37012e-07
-1.65782e-09
-1.39011e-07
-1.75508e-09
-1.41134e-07
-1.85303e-09
-1.43381e-07
-1.95164e-09
-1.45754e-07
-2.05092e-09
-1.48253e-07
-2.15082e-09
-1.5088e-07
-2.25133e-09
-1.53634e-07
-2.35239e-09
-1.56518e-07
-2.45395e-09
-1.59531e-07
-2.5559e-09
-1.62674e-07
-2.65817e-09
-1.65948e-07
-2.76063e-09
-1.69352e-07
-2.86317e-09
-1.72889e-07
-2.96566e-09
-1.76557e-07
-3.06792e-09
-1.80357e-07
-3.16977e-09
-1.84287e-07
-3.27099e-09
-1.88349e-07
-3.37132e-09
-1.92541e-07
-3.47051e-09
-1.96862e-07
-3.56826e-09
-2.01311e-07
-3.66422e-09
-2.05886e-07
-3.75803e-09
-2.10584e-07
-3.84928e-09
-2.15404e-07
-3.93751e-09
-2.20341e-07
-4.02223e-09
-2.25393e-07
-4.1029e-09
-2.30554e-07
-4.17893e-09
-2.35821e-07
-4.24967e-09
-2.41186e-07
-4.31442e-09
-2.46644e-07
-4.37244e-09
-2.52187e-07
-4.42289e-09
-2.57807e-07
-4.4649e-09
-2.63494e-07
-4.49752e-09
-2.69237e-07
-4.51976e-09
-2.75026e-07
-4.53056e-09
-2.80846e-07
-4.52877e-09
-2.86683e-07
-4.51321e-09
-2.92523e-07
-4.48261e-09
-2.98347e-07
-4.43565e-09
-3.04136e-07
-4.37096e-09
-3.09871e-07
-4.2871e-09
-3.15528e-07
-4.1826e-09
-3.21084e-07
-4.05598e-09
-3.26512e-07
-3.90571e-09
-3.31785e-07
-3.73022e-09
-3.36872e-07
-3.52799e-09
-3.41742e-07
-3.29748e-09
-3.46361e-07
-3.03724e-09
-3.50693e-07
-2.74583e-09
-3.547e-07
-2.42193e-09
-3.58342e-07
-2.06434e-09
-3.61578e-07
-1.67198e-09
-3.64366e-07
-1.24397e-09
-3.6666e-07
-7.79638e-10
-3.68414e-07
-2.78536e-10
-3.69582e-07
2.59413e-10
-3.70118e-07
8.34274e-10
-3.69972e-07
1.44525e-09
-3.69097e-07
2.09139e-09
-3.67445e-07
2.77128e-09
-3.64971e-07
3.48305e-09
-3.61629e-07
4.22434e-09
-3.57379e-07
4.99226e-09
-3.52179e-07
5.78339e-09
-3.45994e-07
6.59375e-09
-3.38793e-07
7.41887e-09
-3.30547e-07
8.25373e-09
-3.21235e-07
9.09284e-09
-3.10843e-07
9.93023e-09
-2.99362e-07
1.07596e-08
-2.86792e-07
1.15743e-08
-2.73139e-07
1.23674e-08
-2.58419e-07
1.31321e-08
-2.42659e-07
1.38614e-08
-2.25891e-07
1.45489e-08
-2.0816e-07
1.51889e-08
-1.89516e-07
1.57767e-08
-1.70023e-07
1.63105e-08
-1.49748e-07
1.67925e-08
-1.28775e-07
1.72287e-08
-1.07246e-07
1.76157e-08
-8.53273e-08
1.80109e-08
-6.69474e-08
1.52843e-08
-5.98363e-08
-1.25208e-07
-2.24914e-07
-1.02662e-07
-2.08298e-07
-3.03586e-08
-2.13667e-07
-1.06348e-08
-1.85226e-07
7.72699e-09
-1.62064e-07
1.48617e-08
-1.32857e-07
1.9376e-08
-1.04682e-07
2.16332e-08
-7.5548e-08
2.27133e-08
-4.72707e-08
-2.44199e-08
-1.77652e-10
-1.20979e-07
-3.53502e-10
-1.21288e-07
-5.29824e-10
-1.21503e-07
-7.08011e-10
-1.2181e-07
-8.87959e-10
-1.22233e-07
-1.06878e-09
-1.22787e-07
-1.24996e-09
-1.23469e-07
-1.43152e-09
-1.24271e-07
-1.61361e-09
-1.25192e-07
-1.79645e-09
-1.26229e-07
-1.98018e-09
-1.27385e-07
-2.16492e-09
-1.28658e-07
-2.35077e-09
-1.3005e-07
-2.53781e-09
-1.31562e-07
-2.7261e-09
-1.33193e-07
-2.91569e-09
-1.34946e-07
-3.10661e-09
-1.36821e-07
-3.29888e-09
-1.38819e-07
-3.49252e-09
-1.4094e-07
-3.68752e-09
-1.43186e-07
-3.88388e-09
-1.45558e-07
-4.08157e-09
-1.48056e-07
-4.28054e-09
-1.50681e-07
-4.48072e-09
-1.53434e-07
-4.68203e-09
-1.56316e-07
-4.88434e-09
-1.59328e-07
-5.08748e-09
-1.62471e-07
-5.29128e-09
-1.65744e-07
-5.49554e-09
-1.69148e-07
-5.7e-09
-1.72684e-07
-5.9044e-09
-1.76352e-07
-6.10841e-09
-1.80152e-07
-6.31167e-09
-1.84084e-07
-6.51375e-09
-1.88147e-07
-6.71417e-09
-1.92341e-07
-6.91241e-09
-1.96664e-07
-7.10788e-09
-2.01115e-07
-7.2999e-09
-2.05694e-07
-7.48777e-09
-2.10396e-07
-7.67066e-09
-2.15221e-07
-7.8477e-09
-2.20164e-07
-8.01791e-09
-2.25223e-07
-8.18023e-09
-2.30392e-07
-8.33351e-09
-2.35668e-07
-8.47646e-09
-2.41043e-07
-8.60772e-09
-2.46513e-07
-8.7258e-09
-2.52069e-07
-8.82908e-09
-2.57704e-07
-8.91583e-09
-2.63407e-07
-8.9842e-09
-2.69169e-07
-9.03221e-09
-2.74977e-07
-9.05778e-09
-2.8082e-07
-9.05866e-09
-2.86683e-07
-9.03248e-09
-2.92549e-07
-8.97676e-09
-2.98403e-07
-8.88887e-09
-3.04224e-07
-8.76607e-09
-3.09994e-07
-8.60554e-09
-3.15689e-07
-8.40435e-09
-3.21285e-07
-8.15953e-09
-3.26757e-07
-7.86802e-09
-3.32076e-07
-7.52676e-09
-3.37213e-07
-7.13264e-09
-3.42136e-07
-6.68263e-09
-3.46811e-07
-6.17375e-09
-3.51202e-07
-5.60312e-09
-3.5527e-07
-4.96804e-09
-3.58977e-07
-4.26603e-09
-3.6228e-07
-3.49487e-09
-3.65137e-07
-2.6527e-09
-3.67502e-07
-1.73808e-09
-3.69329e-07
-7.50021e-10
-3.7057e-07
3.11708e-10
-3.7118e-07
1.44751e-09
-3.71108e-07
2.65598e-09
-3.70305e-07
3.93544e-09
-3.68724e-07
5.28332e-09
-3.66319e-07
6.6961e-09
-3.63042e-07
8.16929e-09
-3.58852e-07
9.69736e-09
-3.53707e-07
1.12737e-08
-3.47571e-07
1.28907e-08
-3.4041e-07
1.45395e-08
-3.32196e-07
1.62103e-08
-3.22906e-07
1.78924e-08
-3.12525e-07
1.95739e-08
-3.01044e-07
2.12424e-08
-2.8846e-07
2.28846e-08
-2.74781e-07
2.44868e-08
-2.60022e-07
2.60349e-08
-2.44207e-07
2.7515e-08
-2.27371e-07
2.89136e-08
-2.09558e-07
3.02183e-08
-1.90821e-07
3.1419e-08
-1.71223e-07
3.25104e-08
-1.5084e-07
3.34976e-08
-1.29763e-07
3.44164e-08
-1.08165e-07
3.52933e-08
-8.62042e-08
3.642e-08
-6.80741e-08
3.53729e-08
-5.87892e-08
8.18776e-09
-1.97728e-07
1.46616e-08
-2.14771e-07
2.81385e-08
-2.27142e-07
3.49035e-08
-1.91991e-07
3.87416e-08
-1.65903e-07
4.17964e-08
-1.35913e-07
4.38199e-08
-1.06707e-07
4.52659e-08
-7.69954e-08
4.61351e-08
-4.81407e-08
-2.48466e-08
-2.8796e-10
-1.20692e-07
-5.74975e-10
-1.21001e-07
-8.61582e-10
-1.21217e-07
-1.14919e-09
-1.21523e-07
-1.43836e-09
-1.21944e-07
-1.72885e-09
-1.22497e-07
-2.02042e-09
-1.23177e-07
-2.31304e-09
-1.23979e-07
-2.60685e-09
-1.24898e-07
-2.90203e-09
-1.25934e-07
-3.19875e-09
-1.27088e-07
-3.49714e-09
-1.2836e-07
-3.79736e-09
-1.2975e-07
-4.0995e-09
-1.31259e-07
-4.40369e-09
-1.32889e-07
-4.70998e-09
-1.3464e-07
-5.01843e-09
-1.36513e-07
-5.32909e-09
-1.38508e-07
-5.64196e-09
-1.40627e-07
-5.95707e-09
-1.42871e-07
-6.2744e-09
-1.4524e-07
-6.59388e-09
-1.47736e-07
-6.91546e-09
-1.50359e-07
-7.23902e-09
-1.53111e-07
-7.56441e-09
-1.55991e-07
-7.89143e-09
-1.59001e-07
-8.21984e-09
-1.62142e-07
-8.54936e-09
-1.65414e-07
-8.87965e-09
-1.68818e-07
-9.21032e-09
-1.72354e-07
-9.54094e-09
-1.76022e-07
-9.87099e-09
-1.79822e-07
-1.01999e-08
-1.83755e-07
-1.05269e-08
-1.8782e-07
-1.08514e-08
-1.92016e-07
-1.11724e-08
-1.96343e-07
-1.1489e-08
-2.00799e-07
-1.18001e-08
-2.05382e-07
-1.21046e-08
-2.10092e-07
-1.24012e-08
-2.14924e-07
-1.26885e-08
-2.19877e-07
-1.29648e-08
-2.24946e-07
-1.32286e-08
-2.30128e-07
-1.34778e-08
-2.35418e-07
-1.37106e-08
-2.40811e-07
-1.39246e-08
-2.46299e-07
-1.41175e-08
-2.51876e-07
-1.42867e-08
-2.57535e-07
-1.44293e-08
-2.63264e-07
-1.45425e-08
-2.69056e-07
-1.4623e-08
-2.74897e-07
-1.46675e-08
-2.80776e-07
-1.46723e-08
-2.86678e-07
-1.46336e-08
-2.92588e-07
-1.45474e-08
-2.98489e-07
-1.44095e-08
-3.04362e-07
-1.42154e-08
-3.10188e-07
-1.39605e-08
-3.15944e-07
-1.36402e-08
-3.21605e-07
-1.32496e-08
-3.27148e-07
-1.27837e-08
-3.32542e-07
-1.22375e-08
-3.3776e-07
-1.16061e-08
-3.42768e-07
-1.08844e-08
-3.47533e-07
-1.00676e-08
-3.52019e-07
-9.15102e-09
-3.56187e-07
-8.13015e-09
-3.59998e-07
-7.00092e-09
-3.6341e-07
-5.75968e-09
-3.66378e-07
-4.40332e-09
-3.68858e-07
-2.92941e-09
-3.70803e-07
-1.33625e-09
-3.72164e-07
3.76625e-10
-3.72893e-07
2.21017e-09
-3.72942e-07
4.16208e-09
-3.72257e-07
6.22984e-09
-3.70792e-07
8.40947e-09
-3.68498e-07
1.06954e-08
-3.65328e-07
1.30806e-08
-3.61237e-07
1.55561e-08
-3.56183e-07
1.81114e-08
-3.50126e-07
2.07342e-08
-3.43032e-07
2.34103e-08
-3.34872e-07
2.6124e-08
-3.2562e-07
2.88576e-08
-3.15259e-07
3.15923e-08
-3.03778e-07
3.43075e-08
-2.91175e-07
3.69817e-08
-2.77455e-07
3.95923e-08
-2.62632e-07
4.21165e-08
-2.46731e-07
4.4531e-08
-2.29786e-07
4.68129e-08
-2.1184e-07
4.89401e-08
-1.92948e-07
5.0892e-08
-1.73175e-07
5.26493e-08
-1.52597e-07
5.41936e-08
-1.31307e-07
5.55054e-08
-1.09477e-07
5.65413e-08
-8.72402e-08
5.71381e-08
-6.86708e-08
5.77825e-08
-5.94337e-08
5.69511e-08
-1.96896e-07
6.08693e-08
-2.18687e-07
5.74463e-08
-2.23718e-07
6.25011e-08
-1.97046e-07
6.61626e-08
-1.69566e-07
6.97546e-08
-1.39507e-07
7.23608e-08
-1.09316e-07
7.4205e-08
-7.8841e-08
7.53431e-08
-4.92793e-08
-2.54303e-08
-4.01004e-10
-1.20291e-07
-8.02192e-10
-1.206e-07
-1.20323e-09
-1.20816e-07
-1.60502e-09
-1.21121e-07
-2.00815e-09
-1.21541e-07
-2.41279e-09
-1.22092e-07
-2.81897e-09
-1.22771e-07
-3.22679e-09
-1.23571e-07
-3.63641e-09
-1.24488e-07
-4.04804e-09
-1.25523e-07
-4.46188e-09
-1.26674e-07
-4.87811e-09
-1.27943e-07
-5.29691e-09
-1.29331e-07
-5.71843e-09
-1.30838e-07
-6.1428e-09
-1.32465e-07
-6.57014e-09
-1.34213e-07
-7.00053e-09
-1.36082e-07
-7.43402e-09
-1.38075e-07
-7.87064e-09
-1.40191e-07
-8.31042e-09
-1.42431e-07
-8.75332e-09
-1.44798e-07
-9.19928e-09
-1.4729e-07
-9.6482e-09
-1.4991e-07
-1.00999e-08
-1.52659e-07
-1.05543e-08
-1.55537e-07
-1.10109e-08
-1.58545e-07
-1.14696e-08
-1.61683e-07
-1.19298e-08
-1.64954e-07
-1.23913e-08
-1.68356e-07
-1.28533e-08
-1.71892e-07
-1.33154e-08
-1.7556e-07
-1.37768e-08
-1.79361e-07
-1.42366e-08
-1.83295e-07
-1.4694e-08
-1.87363e-07
-1.5148e-08
-1.91562e-07
-1.55972e-08
-1.95894e-07
-1.60404e-08
-2.00356e-07
-1.64762e-08
-2.04947e-07
-1.69029e-08
-2.09665e-07
-1.73188e-08
-2.14508e-07
-1.77218e-08
-2.19474e-07
-1.81098e-08
-2.24558e-07
-1.84805e-08
-2.29758e-07
-1.88311e-08
-2.35068e-07
-1.9159e-08
-2.40483e-07
-1.9461e-08
-2.45997e-07
-1.97338e-08
-2.51604e-07
-1.99738e-08
-2.57295e-07
-2.01771e-08
-2.63061e-07
-2.03396e-08
-2.68893e-07
-2.04568e-08
-2.7478e-07
-2.0524e-08
-2.80709e-07
-2.05363e-08
-2.86666e-07
-2.04881e-08
-2.92636e-07
-2.03739e-08
-2.98603e-07
-2.01879e-08
-3.04549e-07
-1.99237e-08
-3.10452e-07
-1.9575e-08
-3.16292e-07
-1.91352e-08
-3.22045e-07
-1.85975e-08
-3.27685e-07
-1.79548e-08
-3.33185e-07
-1.72003e-08
-3.38514e-07
-1.63267e-08
-3.43641e-07
-1.53271e-08
-3.48532e-07
-1.41946e-08
-3.53151e-07
-1.29224e-08
-3.57459e-07
-1.15044e-08
-3.61416e-07
-9.93453e-09
-3.6498e-07
-8.20766e-09
-3.68105e-07
-6.31925e-09
-3.70747e-07
-4.26572e-09
-3.72856e-07
-2.04452e-09
-3.74385e-07
3.45007e-10
-3.75282e-07
2.90485e-09
-3.75502e-07
5.63149e-09
-3.74984e-07
8.52187e-09
-3.73683e-07
1.15706e-08
-3.71547e-07
1.47701e-08
-3.68528e-07
1.81106e-08
-3.64578e-07
2.15798e-08
-3.59652e-07
2.51631e-08
-3.53709e-07
2.88434e-08
-3.46713e-07
3.26009e-08
-3.38629e-07
3.64134e-08
-3.29433e-07
4.02563e-08
-3.19102e-07
4.41029e-08
-3.07625e-07
4.79243e-08
-2.94997e-07
5.169e-08
-2.81221e-07
5.53682e-08
-2.6631e-07
5.89261e-08
-2.50289e-07
6.23306e-08
-2.3319e-07
6.55486e-08
-2.15058e-07
6.85479e-08
-1.95947e-07
7.12969e-08
-1.75924e-07
7.37657e-08
-1.55066e-07
7.59242e-08
-1.33465e-07
7.7741e-08
-1.11293e-07
7.91835e-08
-8.86827e-08
8.02085e-08
-6.96958e-08
8.12662e-08
-6.04914e-08
8.32692e-08
-1.98898e-07
8.62288e-08
-2.21645e-07
8.77561e-08
-2.25245e-07
9.21264e-08
-2.01418e-07
9.61322e-08
-1.73575e-07
9.98756e-08
-1.43253e-07
1.02855e-07
-1.12297e-07
1.05039e-07
-8.10255e-08
1.06427e-07
-5.06682e-08
-2.61735e-08
-5.14497e-10
-1.19776e-07
-1.02986e-09
-1.20085e-07
-1.54548e-09
-1.203e-07
-2.06194e-09
-1.20605e-07
-2.57974e-09
-1.21023e-07
-3.09923e-09
-1.21573e-07
-3.62064e-09
-1.22249e-07
-4.1442e-09
-1.23047e-07
-4.67015e-09
-1.23962e-07
-5.19873e-09
-1.24994e-07
-5.73021e-09
-1.26143e-07
-6.26481e-09
-1.27409e-07
-6.80275e-09
-1.28793e-07
-7.34422e-09
-1.30297e-07
-7.88939e-09
-1.3192e-07
-8.43842e-09
-1.33664e-07
-8.9914e-09
-1.3553e-07
-9.54842e-09
-1.37518e-07
-1.01095e-08
-1.3963e-07
-1.06747e-08
-1.41866e-07
-1.1244e-08
-1.44228e-07
-1.18173e-08
-1.46717e-07
-1.23945e-08
-1.49333e-07
-1.29754e-08
-1.52078e-07
-1.35597e-08
-1.54952e-07
-1.41471e-08
-1.57957e-07
-1.47371e-08
-1.61093e-07
-1.53294e-08
-1.64362e-07
-1.59233e-08
-1.67762e-07
-1.65181e-08
-1.71297e-07
-1.71131e-08
-1.74965e-07
-1.77074e-08
-1.78767e-07
-1.82999e-08
-1.82703e-07
-1.88895e-08
-1.86773e-07
-1.94748e-08
-1.90977e-07
-2.00544e-08
-1.95314e-07
-2.06264e-08
-1.99783e-07
-2.11892e-08
-2.04384e-07
-2.17406e-08
-2.09113e-07
-2.22784e-08
-2.1397e-07
-2.28e-08
-2.18952e-07
-2.33026e-08
-2.24055e-07
-2.37834e-08
-2.29277e-07
-2.42389e-08
-2.34612e-07
-2.46655e-08
-2.40056e-07
-2.50593e-08
-2.45603e-07
-2.5416e-08
-2.51247e-07
-2.5731e-08
-2.5698e-07
-2.59994e-08
-2.62793e-07
-2.62158e-08
-2.68677e-07
-2.63746e-08
-2.74621e-07
-2.64697e-08
-2.80614e-07
-2.64946e-08
-2.86641e-07
-2.64424e-08
-2.92688e-07
-2.63059e-08
-2.9874e-07
-2.60774e-08
-3.04777e-07
-2.5749e-08
-3.10781e-07
-2.53125e-08
-3.16729e-07
-2.47591e-08
-3.22599e-07
-2.40802e-08
-3.28364e-07
-2.32666e-08
-3.33998e-07
-2.23093e-08
-3.39472e-07
-2.11989e-08
-3.44752e-07
-1.99264e-08
-3.49805e-07
-1.84827e-08
-3.54595e-07
-1.6859e-08
-3.59083e-07
-1.5047e-08
-3.63228e-07
-1.3039e-08
-3.66988e-07
-1.08278e-08
-3.70316e-07
-8.40757e-09
-3.73167e-07
-5.77322e-09
-3.75491e-07
-2.92113e-09
-3.77237e-07
1.49945e-10
-3.78353e-07
3.44176e-09
-3.78793e-07
6.95121e-09
-3.78493e-07
1.06746e-08
-3.77406e-07
1.46053e-08
-3.75478e-07
1.87336e-08
-3.72656e-07
2.30473e-08
-3.68891e-07
2.75308e-08
-3.64135e-07
3.21654e-08
-3.58344e-07
3.6929e-08
-3.51476e-07
4.17962e-08
-3.43497e-07
4.67383e-08
-3.34375e-07
5.17235e-08
-3.24087e-07
5.6717e-08
-3.12618e-07
6.16811e-08
-2.99961e-07
6.65761e-08
-2.86116e-07
7.13602e-08
-2.71094e-07
7.59905e-08
-2.54919e-07
8.04232e-08
-2.37623e-07
8.46147e-08
-2.19249e-07
8.85218e-08
-1.99854e-07
9.21028e-08
-1.79505e-07
9.53176e-08
-1.58281e-07
9.81282e-08
-1.36276e-07
1.00499e-07
-1.13665e-07
1.02404e-07
-9.05876e-08
1.03871e-07
-7.11628e-08
1.05192e-07
-6.18115e-08
1.08032e-07
-2.01738e-07
1.12097e-07
-2.25711e-07
1.16347e-07
-2.29496e-07
1.21657e-07
-2.06731e-07
1.26517e-07
-1.78438e-07
1.3084e-07
-1.47578e-07
1.34336e-07
-1.15794e-07
1.36919e-07
-8.36091e-08
1.38582e-07
-5.23304e-08
-2.70866e-08
-6.27931e-10
-1.19148e-07
-1.25715e-09
-1.19455e-07
-1.88695e-09
-1.19671e-07
-2.51775e-09
-1.19974e-07
-3.15005e-09
-1.20391e-07
-3.78427e-09
-1.20938e-07
-4.42081e-09
-1.21613e-07
-5.05998e-09
-1.22408e-07
-5.70211e-09
-1.2332e-07
-6.34751e-09
-1.24349e-07
-6.99649e-09
-1.25494e-07
-7.64934e-09
-1.26756e-07
-8.30631e-09
-1.28136e-07
-8.96766e-09
-1.29635e-07
-9.63359e-09
-1.31254e-07
-1.03043e-08
-1.32993e-07
-1.09799e-08
-1.34854e-07
-1.16605e-08
-1.36837e-07
-1.23462e-08
-1.38944e-07
-1.3037e-08
-1.41175e-07
-1.37328e-08
-1.43532e-07
-1.44337e-08
-1.46016e-07
-1.51395e-08
-1.48628e-07
-1.58498e-08
-1.51368e-07
-1.65645e-08
-1.54238e-07
-1.72831e-08
-1.57239e-07
-1.80052e-08
-1.60371e-07
-1.87301e-08
-1.63637e-07
-1.94573e-08
-1.67035e-07
-2.01858e-08
-1.70568e-07
-2.09148e-08
-1.74236e-07
-2.16431e-08
-1.78038e-07
-2.23696e-08
-1.81976e-07
-2.30928e-08
-1.8605e-07
-2.38111e-08
-1.90259e-07
-2.45227e-08
-1.94602e-07
-2.52256e-08
-1.9908e-07
-2.59175e-08
-2.03692e-07
-2.6596e-08
-2.08435e-07
-2.72582e-08
-2.13308e-07
-2.79013e-08
-2.18309e-07
-2.85218e-08
-2.23435e-07
-2.9116e-08
-2.28683e-07
-2.968e-08
-2.34048e-07
-3.02093e-08
-2.39527e-07
-3.06992e-08
-2.45113e-07
-3.11445e-08
-2.50802e-07
-3.15396e-08
-2.56584e-07
-3.18784e-08
-2.62454e-07
-3.21546e-08
-2.68401e-07
-3.2361e-08
-2.74415e-07
-3.24904e-08
-2.80484e-07
-3.25348e-08
-2.86597e-07
-3.24858e-08
-2.92738e-07
-3.23345e-08
-2.98891e-07
-3.20715e-08
-3.0504e-07
-3.16872e-08
-3.11165e-07
-3.11712e-08
-3.17245e-07
-3.0513e-08
-3.23257e-07
-2.97017e-08
-3.29176e-07
-2.87262e-08
-3.34974e-07
-2.75751e-08
-3.40623e-07
-2.62369e-08
-3.4609e-07
-2.47002e-08
-3.51342e-07
-2.29537e-08
-3.56342e-07
-2.09864e-08
-3.6105e-07
-1.87878e-08
-3.65427e-07
-1.63481e-08
-3.69427e-07
-1.36583e-08
-3.73006e-07
-1.07106e-08
-3.76115e-07
-7.49838e-09
-3.78703e-07
-4.0165e-09
-3.80719e-07
-2.60937e-10
-3.82109e-07
3.76295e-09
-3.82817e-07
8.05988e-09
-3.8279e-07
1.26238e-08
-3.8197e-07
1.74466e-08
-3.803e-07
2.2517e-08
-3.77726e-07
2.78202e-08
-3.74194e-07
3.33376e-08
-3.69653e-07
3.90463e-08
-3.64053e-07
4.49194e-08
-3.57349e-07
5.09258e-08
-3.49503e-07
5.70303e-08
-3.40479e-07
6.31934e-08
-3.3025e-07
6.9372e-08
-3.18797e-07
7.55194e-08
-3.06108e-07
8.15859e-08
-2.92182e-07
8.75196e-08
-2.77028e-07
9.32664e-08
-2.60666e-07
9.87715e-08
-2.43128e-07
1.0398e-07
-2.24458e-07
1.08837e-07
-2.04712e-07
1.13291e-07
-1.83958e-07
1.1729e-07
-1.6228e-07
1.20789e-07
-1.39774e-07
1.23746e-07
-1.16622e-07
1.26131e-07
-9.29724e-08
1.28001e-07
-7.30335e-08
1.29622e-07
-6.34322e-08
1.33486e-07
-2.05602e-07
1.38897e-07
-2.31123e-07
1.45077e-07
-2.35679e-07
1.51622e-07
-2.13278e-07
1.57533e-07
-1.8435e-07
1.62649e-07
-1.52696e-07
1.66774e-07
-1.1992e-07
1.6982e-07
-8.66556e-08
1.71788e-07
-5.42982e-08
-2.81853e-08
-7.41088e-10
-1.18407e-07
-1.4838e-09
-1.18713e-07
-2.2273e-09
-1.18927e-07
-2.972e-09
-1.19229e-07
-3.71841e-09
-1.19645e-07
-4.46706e-09
-1.2019e-07
-5.21841e-09
-1.20862e-07
-5.97289e-09
-1.21654e-07
-6.73091e-09
-1.22562e-07
-7.49284e-09
-1.23587e-07
-8.25906e-09
-1.24728e-07
-9.0299e-09
-1.25985e-07
-9.80568e-09
-1.27361e-07
-1.05867e-08
-1.28854e-07
-1.13732e-08
-1.30468e-07
-1.21654e-08
-1.32201e-07
-1.29635e-08
-1.34056e-07
-1.37677e-08
-1.36033e-07
-1.45779e-08
-1.38134e-07
-1.53943e-08
-1.40359e-07
-1.62169e-08
-1.4271e-07
-1.70455e-08
-1.45187e-07
-1.78801e-08
-1.47793e-07
-1.87202e-08
-1.50528e-07
-1.95657e-08
-1.53392e-07
-2.0416e-08
-1.56388e-07
-2.12707e-08
-1.59517e-07
-2.2129e-08
-1.62778e-07
-2.29902e-08
-1.66174e-07
-2.38534e-08
-1.69705e-07
-2.47175e-08
-1.73371e-07
-2.55811e-08
-1.77174e-07
-2.6443e-08
-1.81114e-07
-2.73014e-08
-1.85191e-07
-2.81545e-08
-1.89406e-07
-2.90002e-08
-1.93757e-07
-2.98362e-08
-1.98244e-07
-3.06597e-08
-2.02868e-07
-3.14681e-08
-2.07626e-07
-3.2258e-08
-2.12518e-07
-3.30258e-08
-2.17541e-07
-3.37678e-08
-2.22693e-07
-3.44796e-08
-2.27971e-07
-3.51565e-08
-2.33371e-07
-3.57933e-08
-2.3889e-07
-3.63845e-08
-2.44522e-07
-3.6924e-08
-2.50262e-07
-3.74052e-08
-2.56103e-07
-3.7821e-08
-2.62038e-07
-3.81638e-08
-2.68058e-07
-3.84254e-08
-2.74153e-07
-3.8597e-08
-2.80313e-07
-3.86693e-08
-2.86524e-07
-3.86323e-08
-2.92775e-07
-3.84755e-08
-2.99048e-07
-3.81878e-08
-3.05328e-07
-3.77576e-08
-3.11595e-07
-3.71727e-08
-3.1783e-07
-3.64206e-08
-3.24009e-07
-3.54881e-08
-3.30108e-07
-3.4362e-08
-3.361e-07
-3.30285e-08
-3.41956e-07
-3.14737e-08
-3.47645e-07
-2.9684e-08
-3.53132e-07
-2.76456e-08
-3.5838e-07
-2.53451e-08
-3.63351e-07
-2.27697e-08
-3.68002e-07
-1.99072e-08
-3.7229e-07
-1.67464e-08
-3.76167e-07
-1.32777e-08
-3.79584e-07
-9.49252e-09
-3.82488e-07
-5.3846e-09
-3.84827e-07
-9.49671e-10
-3.86544e-07
3.8128e-09
-3.8758e-07
8.90311e-09
-3.87881e-07
1.43157e-08
-3.87383e-07
2.00421e-08
-3.86027e-07
2.60696e-08
-3.83754e-07
3.23812e-08
-3.80506e-07
3.89553e-08
-3.76227e-07
4.57652e-08
-3.70863e-07
5.27791e-08
-3.64363e-07
5.99601e-08
-3.56684e-07
6.72662e-08
-3.47785e-07
7.46503e-08
-3.37634e-07
8.20605e-08
-3.26207e-07
8.94407e-08
-3.13488e-07
9.67308e-08
-2.99472e-07
1.03868e-07
-2.84165e-07
1.10786e-07
-2.67584e-07
1.17418e-07
-2.4976e-07
1.23697e-07
-2.30737e-07
1.29557e-07
-2.10571e-07
1.34933e-07
-1.89334e-07
1.39763e-07
-1.6711e-07
1.43992e-07
-1.44003e-07
1.4757e-07
-1.202e-07
1.50459e-07
-9.58615e-08
1.52737e-07
-7.53112e-08
1.54692e-07
-6.53876e-08
1.59627e-07
-2.10537e-07
1.66414e-07
-2.37912e-07
1.74339e-07
-2.43606e-07
1.82288e-07
-2.21229e-07
1.89394e-07
-1.91458e-07
1.95454e-07
-1.58757e-07
2.00311e-07
-1.24776e-07
2.03885e-07
-9.02306e-08
2.06195e-07
-5.66085e-08
-2.94887e-08
-8.53832e-10
-1.17553e-07
-1.70957e-09
-1.17857e-07
-2.56628e-09
-1.1807e-07
-3.4244e-09
-1.18371e-07
-4.28448e-09
-1.18785e-07
-5.14712e-09
-1.19327e-07
-6.01289e-09
-1.19996e-07
-6.8823e-09
-1.20784e-07
-7.75583e-09
-1.21689e-07
-8.63393e-09
-1.22709e-07
-9.51703e-09
-1.23845e-07
-1.04055e-08
-1.25097e-07
-1.12998e-08
-1.26466e-07
-1.22003e-08
-1.27954e-07
-1.31071e-08
-1.29561e-07
-1.40207e-08
-1.31288e-07
-1.49412e-08
-1.33136e-07
-1.58688e-08
-1.35106e-07
-1.68036e-08
-1.37199e-07
-1.77456e-08
-1.39417e-07
-1.8695e-08
-1.41761e-07
-1.96515e-08
-1.44231e-07
-2.06151e-08
-1.46829e-07
-2.15854e-08
-1.49557e-07
-2.25621e-08
-1.52416e-07
-2.35447e-08
-1.55406e-07
-2.45326e-08
-1.58529e-07
-2.55251e-08
-1.61786e-07
-2.65214e-08
-1.65178e-07
-2.75203e-08
-1.68706e-07
-2.85207e-08
-1.72371e-07
-2.95211e-08
-1.76174e-07
-3.052e-08
-1.80115e-07
-3.15155e-08
-1.84196e-07
-3.25055e-08
-1.88416e-07
-3.34876e-08
-1.92775e-07
-3.44593e-08
-1.97273e-07
-3.54174e-08
-2.0191e-07
-3.63589e-08
-2.06685e-07
-3.72799e-08
-2.11597e-07
-3.81765e-08
-2.16644e-07
-3.90443e-08
-2.21825e-07
-3.98783e-08
-2.27137e-07
-4.06733e-08
-2.32576e-07
-4.14232e-08
-2.3814e-07
-4.21217e-08
-2.43824e-07
-4.2762e-08
-2.49622e-07
-4.33364e-08
-2.55529e-07
-4.38368e-08
-2.61538e-07
-4.42545e-08
-2.6764e-07
-4.458e-08
-2.73828e-07
-4.48032e-08
-2.8009e-07
-4.49133e-08
-2.86414e-07
-4.48988e-08
-2.92789e-07
-4.47476e-08
-2.99199e-07
-4.44468e-08
-3.05629e-07
-4.39829e-08
-3.12059e-07
-4.33418e-08
-3.18471e-07
-4.25087e-08
-3.24842e-07
-4.14685e-08
-3.31148e-07
-4.02052e-08
-3.37364e-07
-3.87031e-08
-3.43459e-07
-3.69456e-08
-3.49402e-07
-3.49165e-08
-3.55161e-07
-3.25994e-08
-3.60697e-07
-2.99785e-08
-3.65972e-07
-2.70382e-08
-3.70943e-07
-2.37639e-08
-3.75564e-07
-2.01421e-08
-3.79789e-07
-1.61604e-08
-3.83565e-07
-1.18086e-08
-3.8684e-07
-7.07831e-09
-3.89558e-07
-1.96385e-09
-3.91659e-07
3.53712e-09
-3.93081e-07
9.4256e-09
-3.93769e-07
1.56956e-08
-3.93653e-07
2.23383e-08
-3.9267e-07
2.934e-08
-3.90756e-07
3.66819e-08
-3.87848e-07
4.43394e-08
-3.83884e-07
5.22822e-08
-3.78805e-07
6.04737e-08
-3.72555e-07
6.88713e-08
-3.65082e-07
7.7426e-08
-3.5634e-07
8.60828e-08
-3.46291e-07
9.47807e-08
-3.34905e-07
1.03453e-07
-3.22161e-07
1.1203e-07
-3.08049e-07
1.20435e-07
-2.9257e-07
1.28591e-07
-2.7574e-07
1.36417e-07
-2.57586e-07
1.43833e-07
-2.38153e-07
1.5076e-07
-2.17498e-07
1.57118e-07
-1.95693e-07
1.62836e-07
-1.72828e-07
1.67845e-07
-1.49012e-07
1.72087e-07
-1.24441e-07
1.75514e-07
-9.92884e-08
1.78221e-07
-7.80182e-08
1.80541e-07
-6.77077e-08
1.86573e-07
-2.1657e-07
1.94757e-07
-2.46097e-07
2.04426e-07
-2.53277e-07
2.13915e-07
-2.30719e-07
2.22344e-07
-1.99888e-07
2.29472e-07
-1.65885e-07
2.35152e-07
-1.30457e-07
2.39317e-07
-9.4396e-08
2.42006e-07
-5.92981e-08
-3.10174e-08
-9.66062e-10
-1.16587e-07
-1.9343e-09
-1.16889e-07
-2.90367e-09
-1.17101e-07
-3.87465e-09
-1.174e-07
-4.84788e-09
-1.17812e-07
-5.82402e-09
-1.18351e-07
-6.80373e-09
-1.19016e-07
-7.7876e-09
-1.198e-07
-8.7762e-09
-1.207e-07
-9.77004e-09
-1.21715e-07
-1.07696e-08
-1.22845e-07
-1.17754e-08
-1.24091e-07
-1.27879e-08
-1.25454e-07
-1.38074e-08
-1.26935e-07
-1.48344e-08
-1.28534e-07
-1.58691e-08
-1.30253e-07
-1.69117e-08
-1.32093e-07
-1.79626e-08
-1.34055e-07
-1.90219e-08
-1.3614e-07
-2.00897e-08
-1.38349e-07
-2.11659e-08
-1.40684e-07
-2.22505e-08
-1.43146e-07
-2.33433e-08
-1.45737e-07
-2.44442e-08
-1.48456e-07
-2.55526e-08
-1.51307e-07
-2.66681e-08
-1.5429e-07
-2.779e-08
-1.57407e-07
-2.89176e-08
-1.60658e-07
-3.00499e-08
-1.64045e-07
-3.11858e-08
-1.6757e-07
-3.23239e-08
-1.71233e-07
-3.34628e-08
-1.75035e-07
-3.46005e-08
-1.78978e-07
-3.57352e-08
-1.83061e-07
-3.68645e-08
-1.87286e-07
-3.79857e-08
-1.91653e-07
-3.9096e-08
-1.96162e-07
-4.0192e-08
-2.00814e-07
-4.12702e-08
-2.05607e-07
-4.23264e-08
-2.1054e-07
-4.33563e-08
-2.15614e-07
-4.43548e-08
-2.20826e-07
-4.53164e-08
-2.26175e-07
-4.62352e-08
-2.31657e-07
-4.71047e-08
-2.37271e-07
-4.79176e-08
-2.43011e-07
-4.86661e-08
-2.48873e-07
-4.93419e-08
-2.54853e-07
-4.99357e-08
-2.60944e-07
-5.04377e-08
-2.67138e-07
-5.08372e-08
-2.73428e-07
-5.11227e-08
-2.79804e-07
-5.12821e-08
-2.86255e-07
-5.13023e-08
-2.92769e-07
-5.11696e-08
-2.99332e-07
-5.08692e-08
-3.05929e-07
-5.03857e-08
-3.12543e-07
-4.97031e-08
-3.19154e-07
-4.88043e-08
-3.25741e-07
-4.76718e-08
-3.32281e-07
-4.62876e-08
-3.38748e-07
-4.4633e-08
-3.45114e-07
-4.2689e-08
-3.51347e-07
-4.04367e-08
-3.57413e-07
-3.78569e-08
-3.63277e-07
-3.49309e-08
-3.68898e-07
-3.16404e-08
-3.74233e-07
-2.79678e-08
-3.79237e-07
-2.38968e-08
-3.8386e-07
-1.94125e-08
-3.8805e-07
-1.4502e-08
-3.91751e-07
-9.15473e-09
-3.94905e-07
-3.363e-09
-3.9745e-07
2.87689e-09
-3.99321e-07
9.56832e-09
-4.00461e-07
1.67047e-08
-4.00789e-07
2.42776e-08
-4.00243e-07
3.22727e-08
-3.98751e-07
4.06694e-08
-3.96245e-07
4.94408e-08
-3.92656e-07
5.8553e-08
-3.87918e-07
6.79649e-08
-3.81967e-07
7.76279e-08
-3.74745e-07
8.74862e-08
-3.66198e-07
9.74763e-08
-3.56281e-07
1.07528e-07
-3.44957e-07
1.17564e-07
-3.32197e-07
1.27502e-07
-3.17986e-07
1.37253e-07
-3.02321e-07
1.46726e-07
-2.85213e-07
1.55826e-07
-2.66687e-07
1.64458e-07
-2.46785e-07
1.72528e-07
-2.25567e-07
1.79943e-07
-2.03108e-07
1.86616e-07
-1.79501e-07
1.92465e-07
-1.54861e-07
1.97422e-07
-1.29398e-07
2.01429e-07
-1.03295e-07
2.04597e-07
-8.11867e-08
2.07313e-07
-7.04231e-08
2.14492e-07
-2.23749e-07
2.24118e-07
-2.55724e-07
2.35604e-07
-2.64763e-07
2.46764e-07
-2.41878e-07
2.5664e-07
-2.09763e-07
2.64947e-07
-1.74191e-07
2.71536e-07
-1.37046e-07
2.76347e-07
-9.9207e-08
2.79449e-07
-6.23991e-08
-3.27918e-08
-1.07769e-09
-1.1551e-07
-2.15781e-09
-1.15809e-07
-3.23923e-09
-1.1602e-07
-4.32248e-09
-1.16317e-07
-5.40824e-09
-1.16726e-07
-6.49731e-09
-1.17262e-07
-7.5904e-09
-1.17923e-07
-8.6882e-09
-1.18703e-07
-9.79135e-09
-1.19597e-07
-1.09004e-08
-1.20606e-07
-1.2016e-08
-1.21729e-07
-1.31387e-08
-1.22969e-07
-1.42689e-08
-1.24324e-07
-1.54072e-08
-1.25797e-07
-1.65539e-08
-1.27387e-07
-1.77094e-08
-1.29098e-07
-1.88741e-08
-1.30928e-07
-2.00482e-08
-1.32881e-07
-2.12318e-08
-1.34956e-07
-2.24252e-08
-1.37156e-07
-2.36284e-08
-1.39481e-07
-2.48412e-08
-1.41934e-07
-2.60637e-08
-1.44514e-07
-2.72954e-08
-1.47225e-07
-2.8536e-08
-1.50066e-07
-2.97851e-08
-1.53041e-07
-3.10418e-08
-1.5615e-07
-3.23054e-08
-1.59394e-07
-3.35749e-08
-1.62776e-07
-3.48491e-08
-1.66296e-07
-3.61266e-08
-1.69955e-07
-3.74056e-08
-1.73756e-07
-3.86843e-08
-1.77699e-07
-3.99604e-08
-1.81785e-07
-4.12315e-08
-1.86015e-07
-4.24948e-08
-1.9039e-07
-4.3747e-08
-1.9491e-07
-4.49846e-08
-1.99576e-07
-4.62036e-08
-2.04387e-07
-4.73996e-08
-2.09344e-07
-4.85676e-08
-2.14446e-07
-4.97023e-08
-2.19692e-07
-5.07975e-08
-2.2508e-07
-5.18468e-08
-2.30608e-07
-5.2843e-08
-2.36274e-07
-5.3778e-08
-2.42076e-07
-5.46434e-08
-2.48008e-07
-5.54297e-08
-2.54067e-07
-5.61268e-08
-2.60247e-07
-5.67237e-08
-2.66542e-07
-5.72086e-08
-2.72943e-07
-5.75687e-08
-2.79444e-07
-5.77904e-08
-2.86033e-07
-5.78592e-08
-2.927e-07
-5.77595e-08
-2.99432e-07
-5.74749e-08
-3.06214e-07
-5.69881e-08
-3.1303e-07
-5.62808e-08
-3.19861e-07
-5.53338e-08
-3.26688e-07
-5.41272e-08
-3.33488e-07
-5.26404e-08
-3.40235e-07
-5.08522e-08
-3.46902e-07
-4.87407e-08
-3.53458e-07
-4.62842e-08
-3.5987e-07
-4.34604e-08
-3.66101e-07
-4.02475e-08
-3.72111e-07
-3.66241e-08
-3.77857e-07
-3.25695e-08
-3.83292e-07
-2.8064e-08
-3.88366e-07
-2.30898e-08
-3.93024e-07
-1.76309e-08
-3.9721e-07
-1.1674e-08
-4.00862e-07
-5.20895e-09
-4.03916e-07
1.76944e-09
-4.06299e-07
9.26795e-09
-4.07959e-07
1.72797e-08
-4.08801e-07
2.57974e-08
-4.0876e-07
3.48064e-08
-4.0776e-07
4.42851e-08
-4.05724e-07
5.42044e-08
-4.02575e-07
6.45272e-08
-3.9824e-07
7.52079e-08
-3.92647e-07
8.61923e-08
-3.85729e-07
9.74173e-08
-3.77423e-07
1.08811e-07
-3.67675e-07
1.20293e-07
-3.56439e-07
1.31775e-07
-3.43679e-07
1.43161e-07
-3.29372e-07
1.54349e-07
-3.13509e-07
1.65233e-07
-2.96096e-07
1.75702e-07
-2.77155e-07
1.85645e-07
-2.56727e-07
1.94949e-07
-2.34871e-07
2.03507e-07
-2.11666e-07
2.11215e-07
-1.87209e-07
2.17977e-07
-1.61623e-07
2.23712e-07
-1.35132e-07
2.28349e-07
-1.07933e-07
2.3202e-07
-8.48572e-08
2.35165e-07
-7.35682e-08
2.43565e-07
-2.3215e-07
2.54697e-07
-2.66855e-07
2.68131e-07
-2.78194e-07
2.81101e-07
-2.54844e-07
2.92552e-07
-2.21211e-07
3.02148e-07
-1.83784e-07
3.09728e-07
-1.44624e-07
3.15233e-07
-1.04711e-07
3.18771e-07
-6.59364e-08
-3.48303e-08
-1.18863e-09
-1.14321e-07
-2.37994e-09
-1.14618e-07
-3.57272e-09
-1.14827e-07
-4.76755e-09
-1.15122e-07
-5.96519e-09
-1.15528e-07
-7.16652e-09
-1.16061e-07
-8.37237e-09
-1.16717e-07
-9.58348e-09
-1.17491e-07
-1.08006e-08
-1.1838e-07
-1.20244e-08
-1.19382e-07
-1.32554e-08
-1.20498e-07
-1.44945e-08
-1.2173e-07
-1.5742e-08
-1.23076e-07
-1.69985e-08
-1.2454e-07
-1.82646e-08
-1.26121e-07
-1.95407e-08
-1.27822e-07
-2.08271e-08
-1.29642e-07
-2.21241e-08
-1.31584e-07
-2.34321e-08
-1.33649e-07
-2.47511e-08
-1.35837e-07
-2.60812e-08
-1.38151e-07
-2.74225e-08
-1.40592e-07
-2.87747e-08
-1.43162e-07
-3.01378e-08
-1.45862e-07
-3.15111e-08
-1.48693e-07
-3.28944e-08
-1.51658e-07
-3.42868e-08
-1.54757e-07
-3.56875e-08
-1.57993e-07
-3.70954e-08
-1.61368e-07
-3.85093e-08
-1.64882e-07
-3.99277e-08
-1.68537e-07
-4.13488e-08
-1.72335e-07
-4.27706e-08
-1.76277e-07
-4.41908e-08
-1.80365e-07
-4.56066e-08
-1.84599e-07
-4.70151e-08
-1.88981e-07
-4.84128e-08
-1.93512e-07
-4.9796e-08
-1.98193e-07
-5.11602e-08
-2.03023e-07
-5.25009e-08
-2.08004e-07
-5.38125e-08
-2.13134e-07
-5.50894e-08
-2.18415e-07
-5.63249e-08
-2.23844e-07
-5.75119e-08
-2.29421e-07
-5.86427e-08
-2.35144e-07
-5.97085e-08
-2.4101e-07
-6.07e-08