/*--------------------------------*- C++ -*----------------------------------*\
| =========                 |                                                 |
| \\      /  F ield         | OpenFOAM: The Open Source CFD Toolbox           |
|  \\    /   O peration     | Version:  v2106                                 |
|   \\  /    A nd           | Website:  www.openfoam.com                      |
|    \\/     M anipulation  |                                                 |
\*---------------------------------------------------------------------------*/
FoamFile
{
    version     2.0;
    format      ascii;
    arch        "LSB;label=32;scalar=64";
    class       volVectorField;
    location    "0.3";
    object      U;
}
// * * * * * * * * * * * * * * * * * * * * * * * * * * * * * * * * * * * * * //

dimensions      [0 1 -1 0 0 0 0];

internalField   nonuniform List<vector> 
29678
(
(-0.00101027 5.75064e-27 -2.9847e-07)
(-0.00101292 2.48897e-25 -9.57671e-07)
(-0.00101477 -4.51579e-24 -1.73568e-06)
(-0.00101735 1.38174e-22 -2.5253e-06)
(-0.00102089 4.8695e-21 -3.30102e-06)
(-0.0010255 5.24834e-21 -4.07499e-06)
(-0.00103118 5.37327e-21 -4.84405e-06)
(-0.00103787 4.88787e-21 -5.60935e-06)
(-0.00104554 -9.59319e-21 -6.37362e-06)
(-0.0010542 4.07065e-21 -7.1391e-06)
(-0.00106383 -9.62258e-21 -7.90725e-06)
(-0.00107446 4.31929e-21 -8.67901e-06)
(-0.00108607 -9.11659e-21 -9.45502e-06)
(-0.00109868 4.13173e-21 -1.02357e-05)
(-0.0011123 -1.02417e-20 -1.10215e-05)
(-0.00112692 4.49132e-21 -1.18127e-05)
(-0.00114256 -1.20243e-20 -1.26093e-05)
(-0.00115923 -1.07052e-20 -1.34115e-05)
(-0.00117692 4.88714e-21 -1.42192e-05)
(-0.00119566 -1.25082e-20 -1.50326e-05)
(-0.00121543 -1.20056e-20 -1.58516e-05)
(-0.00123627 -1.1531e-20 -1.66762e-05)
(-0.00125816 -5.94609e-22 -1.75062e-05)
(-0.00128112 -1.73786e-21 -1.83413e-05)
(-0.00130515 -6.39604e-21 -1.91813e-05)
(-0.00133026 -2.01381e-21 -2.00256e-05)
(-0.00135646 -5.65263e-21 -2.08737e-05)
(-0.00138374 7.97612e-21 -2.17248e-05)
(-0.00141212 -1.3406e-20 -2.25781e-05)
(-0.00144159 -1.58348e-20 -2.34325e-05)
(-0.00147216 -1.35451e-20 -2.42871e-05)
(-0.00150382 -6.0255e-22 -2.51405e-05)
(-0.00153657 8.44964e-23 -2.59914e-05)
(-0.00157042 7.71922e-21 -2.68379e-05)
(-0.00160534 8.44826e-21 -2.76781e-05)
(-0.00164134 1.01447e-20 -2.851e-05)
(-0.0016784 9.18714e-21 -2.93311e-05)
(-0.00171651 8.6525e-21 -3.01389e-05)
(-0.00175564 9.01776e-21 -3.09303e-05)
(-0.00179579 9.66957e-21 -3.17022e-05)
(-0.00183691 9.28223e-21 -3.24509e-05)
(-0.00187897 9.72909e-21 -3.31724e-05)
(-0.00192195 1.00836e-20 -3.38626e-05)
(-0.0019658 9.6403e-21 -3.45166e-05)
(-0.00201047 9.68002e-21 -3.51293e-05)
(-0.00205591 -9.79678e-21 -3.56952e-05)
(-0.00210204 9.56717e-21 -3.62082e-05)
(-0.00214881 1.01558e-20 -3.66617e-05)
(-0.00219613 1.16817e-20 -3.70486e-05)
(-0.00224391 1.21287e-20 -3.73613e-05)
(-0.00229206 1.02208e-20 -3.75918e-05)
(-0.00234047 1.29926e-20 -3.77314e-05)
(-0.00238901 1.12751e-20 -3.7771e-05)
(-0.00243756 1.19165e-20 -3.7701e-05)
(-0.00248597 8.16519e-22 -3.7511e-05)
(-0.00253408 1.26594e-20 -3.71903e-05)
(-0.00258172 1.296e-20 -3.67276e-05)
(-0.00262871 1.2856e-20 -3.61112e-05)
(-0.00267483 1.29811e-20 -3.53291e-05)
(-0.00271989 1.63324e-20 -3.43689e-05)
(-0.00276363 1.38917e-20 -3.32179e-05)
(-0.00280581 1.45528e-20 -3.18634e-05)
(-0.00284618 1.56354e-20 -3.02924e-05)
(-0.00288443 1.44714e-20 -2.8492e-05)
(-0.00292028 1.56631e-20 -2.64499e-05)
(-0.00295342 1.44149e-20 -2.41538e-05)
(-0.0029835 1.36387e-21 -2.15924e-05)
(-0.00301019 1.40492e-20 -1.8755e-05)
(-0.00303313 -2.82237e-20 -1.5632e-05)
(-0.00305195 1.20152e-20 -1.22154e-05)
(-0.00306627 -1.34288e-20 -8.49791e-06)
(-0.0030757 1.47079e-20 -4.47782e-06)
(-0.00307986 -1.38471e-20 -1.49098e-07)
(-0.00307834 1.29592e-20 4.49039e-06)
(-0.00307074 -1.44356e-20 9.43324e-06)
(-0.00305669 -1.32568e-20 1.46737e-05)
(-0.00303579 1.30757e-20 2.0202e-05)
(-0.00300768 -1.18248e-20 2.60046e-05)
(-0.00297202 1.16586e-20 3.2064e-05)
(-0.00292846 -2.86186e-20 3.83582e-05)
(-0.00287673 1.16804e-20 4.48611e-05)
(-0.00281656 -1.25004e-20 5.15417e-05)
(-0.00274772 9.49308e-21 5.8365e-05)
(-0.00267005 -1.29782e-20 6.52912e-05)
(-0.00258341 -1.16635e-20 7.22766e-05)
(-0.00248775 1.07727e-20 7.92733e-05)
(-0.00238306 -9.31213e-21 8.623e-05)
(-0.00226941 1.01051e-20 9.30924e-05)
(-0.00214693 -9.67808e-21 9.98042e-05)
(-0.00201582 8.12461e-21 0.000106308)
(-0.00187639 -1.69501e-20 0.000112545)
(-0.00172897 -2.86098e-23 0.00011846)
(-0.001574 7.22565e-21 0.000124002)
(-0.00141199 -1.37188e-20 0.000129125)
(-0.00124348 4.41164e-21 0.000133804)
(-0.00106914 -9.97103e-21 0.000137949)
(-0.000890107 3.78795e-21 0.000142317)
(-0.000707857 -2.99608e-21 0.000143961)
(-0.00055465 2.74308e-21 0.000150867)
(-0.000521253 -2.28726e-21 0.000143347)
(-0.00280651 -3.13219e-21 5.03381e-05)
(-0.00156064 1.15813e-20 -0.00186838)
(-0.00120203 -1.2791e-20 -0.00014543)
(-0.0013837 -9.90746e-22 -0.000272994)
(-0.00120189 -1.15297e-20 6.18139e-05)
(-0.00104898 4.58845e-21 8.15329e-05)
(-0.000835532 -2.93104e-21 0.000153511)
(-0.000611099 4.62888e-21 0.000172436)
(-0.00038507 -2.68702e-21 0.000185923)
(-0.000200424 -1.13538e-22 0.00019236)
(-0.00100892 1.58796e-25 -7.33536e-07)
(-0.00101155 7.40226e-24 -2.21775e-06)
(-0.0010134 1.70331e-22 -3.69601e-06)
(-0.00101598 4.45028e-21 -5.15657e-06)
(-0.00101951 2.3825e-22 -6.64208e-06)
(-0.00102413 4.82331e-23 -8.14948e-06)
(-0.00102981 1.5545e-22 -9.6602e-06)
(-0.0010365 4.40861e-21 -1.11719e-05)
(-0.00104418 -4.38578e-21 -1.26869e-05)
(-0.00105283 -3.7455e-22 -1.42072e-05)
(-0.00106246 -4.44561e-21 -1.57344e-05)
(-0.00107307 4.39282e-21 -1.72695e-05)
(-0.00108468 -3.81775e-21 -1.88135e-05)
(-0.00109728 -3.83075e-22 -2.0367e-05)
(-0.00111089 -4.654e-21 -2.19308e-05)
(-0.0011255 4.56941e-21 -2.35052e-05)
(-0.00114113 -5.45143e-21 -2.50907e-05)
(-0.00115779 -4.79835e-21 -2.66873e-05)
(-0.00117547 9.86852e-21 -2.82952e-05)
(-0.0011942 -6.67109e-21 -2.99145e-05)
(-0.00121397 -5.70329e-21 -3.15452e-05)
(-0.00123479 -5.84715e-21 -3.31872e-05)
(-0.00125667 -1.71634e-22 -3.484e-05)
(-0.00127962 -6.24084e-21 -3.65033e-05)
(-0.00130365 -7.15444e-22 -3.81764e-05)
(-0.00132875 -1.22021e-20 -3.98583e-05)
(-0.00135494 6.57704e-21 -4.1548e-05)
(-0.00138222 1.44353e-20 -4.3244e-05)
(-0.00141059 -6.06256e-21 -4.49446e-05)
(-0.00144006 -7.60695e-21 -4.6648e-05)
(-0.00147063 -5.4881e-21 -4.83521e-05)
(-0.00150229 -3.41863e-22 -5.00544e-05)
(-0.00153505 -1.28266e-20 -5.1752e-05)
(-0.00156891 -4.17054e-22 -5.34417e-05)
(-0.00160384 7.16173e-21 -5.51197e-05)
(-0.00163986 3.30439e-22 -5.67817e-05)
(-0.00167694 -6.8645e-23 -5.84232e-05)
(-0.00171507 3.59188e-22 -6.00389e-05)
(-0.00175424 -2.29948e-22 -6.16231e-05)
(-0.00179442 1.60069e-22 -6.31694e-05)
(-0.00183559 3.90621e-22 -6.46707e-05)
(-0.00187771 8.29008e-21 -6.61193e-05)
(-0.00192075 2.99656e-22 -6.75068e-05)
(-0.00196466 -4.08384e-22 -6.88238e-05)
(-0.00200941 -7.54706e-22 -7.00604e-05)
(-0.00205493 -1.88047e-20 -7.12054e-05)
(-0.00210117 -4.68494e-22 -7.22469e-05)
(-0.00214805 4.42208e-22 -7.31721e-05)
(-0.00219549 9.92973e-21 -7.3967e-05)
(-0.00224342 4.23478e-22 -7.46166e-05)
(-0.00229172 4.15243e-23 -7.5105e-05)
(-0.0023403 1.15895e-20 -7.54153e-05)
(-0.00238902 9.70366e-21 -7.55294e-05)
(-0.00243778 -8.64945e-21 -7.54281e-05)
(-0.00248641 -2.80951e-22 -7.50913e-05)
(-0.00253476 1.10619e-20 -7.44975e-05)
(-0.00258266 -1.20946e-20 -7.36243e-05)
(-0.00262993 -7.26053e-22 -7.24487e-05)
(-0.00267637 5.72333e-22 -7.09466e-05)
(-0.00272175 1.41911e-20 -6.90934e-05)
(-0.00276584 6.44814e-22 -6.6864e-05)
(-0.0028084 3.99283e-22 -6.42327e-05)
(-0.00284916 4.0311e-22 -6.11739e-05)
(-0.00288783 -2.37316e-22 -5.76619e-05)
(-0.00292413 -4.28807e-23 -5.36716e-05)
(-0.00295772 1.26252e-20 -4.91785e-05)
(-0.00298829 6.6618e-22 -4.41592e-05)
(-0.00301548 -1.1211e-21 -3.85921e-05)
(-0.00303894 -2.58447e-20 -3.24576e-05)
(-0.00305829 -9.27139e-22 -2.57387e-05)
(-0.00307315 -1.24553e-22 -1.84204e-05)
(-0.00308312 -1.03517e-21 -1.04974e-05)
(-0.00308783 -2.76382e-20 -1.9603e-06)
(-0.00308686 -1.06485e-21 7.20069e-06)
(-0.00307981 -1.07356e-21 1.69742e-05)
(-0.00306628 -2.69488e-20 2.73452e-05)
(-0.00304588 -8.85425e-22 3.82983e-05)
(-0.00301825 -1.55865e-22 4.98084e-05)
(-0.00298303 -9.97585e-22 6.18423e-05)
(-0.00293988 -3.06892e-20 7.43584e-05)
(-0.0028885 -1.05257e-21 8.73061e-05)
(-0.00282862 -2.47363e-22 0.000100626)
(-0.00276001 -1.20887e-21 0.000114249)
(-0.00268248 -2.18191e-20 0.000128099)
(-0.00259592 -1.67254e-21 0.000142089)
(-0.00250024 -1.6318e-21 0.000156125)
(-0.00239544 -2.11637e-20 0.000170106)
(-0.00228158 8.72415e-23 0.000183924)
(-0.00215879 -1.69191e-22 0.000197466)
(-0.00202727 -4.43582e-22 0.000210616)
(-0.00188732 -1.52983e-20 0.000223257)
(-0.00173929 -2.9532e-21 0.000235275)
(-0.00158362 5.96454e-22 0.000246559)
(-0.00142084 -1.2384e-20 0.000257014)
(-0.00125155 -7.95978e-22 0.000266577)
(-0.00107646 -9.40168e-21 0.00027506)
(-0.00089692 -1.96633e-21 0.000284261)
(-0.00071422 -7.09268e-21 0.000285923)
(-0.000561506 6.38408e-22 0.000311566)
(-0.000484184 4.03772e-22 0.000276265)
(-0.00158873 -1.7804e-20 0.00026311)
(-0.00178491 -2.14338e-21 -4.95426e-05)
(-0.00208036 1.6861e-21 0.000206951)
(-0.00162474 8.77503e-23 0.000259298)
(-0.00141117 -1.21164e-20 0.000314466)
(-0.00113274 -4.21715e-22 0.000334231)
(-0.000886728 -8.25786e-23 0.000358687)
(-0.000637646 9.23504e-22 0.000371975)
(-0.000398127 -6.86217e-22 0.000381521)
(-0.000205298 1.58527e-21 0.00038797)
(-0.00100699 -8.89097e-27 -1.18951e-06)
(-0.00100963 -3.57113e-25 -3.61048e-06)
(-0.00101149 -5.57525e-24 -6.01823e-06)
(-0.00101407 -1.43701e-23 -8.37649e-06)
(-0.00101759 -4.45634e-21 -1.07679e-05)
(-0.0010222 -4.80033e-21 -1.31901e-05)
(-0.00102788 -4.95369e-21 -1.56192e-05)
(-0.00103456 -4.36703e-21 -1.8054e-05)
(-0.00104223 8.88327e-21 -2.04974e-05)
(-0.00105087 -3.81167e-21 -2.29513e-05)
(-0.00106049 9.29989e-21 -2.54172e-05)
(-0.0010711 -4.13467e-21 -2.78966e-05)
(-0.00108269 8.63583e-21 -3.03906e-05)
(-0.00109528 -3.88315e-21 -3.29003e-05)
(-0.00110887 9.8899e-21 -3.54265e-05)
(-0.00112347 -3.5727e-21 -3.797e-05)
(-0.00113909 1.11615e-20 -4.05314e-05)
(-0.00115573 1.00279e-20 -4.3111e-05)
(-0.0011734 -4.70726e-21 -4.5709e-05)
(-0.00119211 1.0358e-20 -4.83256e-05)
(-0.00121186 1.13328e-20 -5.09608e-05)
(-0.00123267 9.91369e-21 -5.36143e-05)
(-0.00125454 4.5111e-22 -5.62856e-05)
(-0.00127748 1.01043e-21 -5.89738e-05)
(-0.00130149 5.52132e-21 -6.16781e-05)
(-0.00132659 1.4958e-22 -6.43968e-05)
(-0.00135277 6.06693e-21 -6.71283e-05)
(-0.00138004 -5.66323e-21 -6.98702e-05)
(-0.00140841 1.37626e-20 -7.262e-05)
(-0.00143787 1.40901e-20 -7.53747e-05)
(-0.00146844 1.36094e-20 -7.81309e-05)
(-0.00150011 8.32686e-23 -8.08846e-05)
(-0.00153288 1.71262e-22 -8.36312e-05)
(-0.00156674 -6.94004e-21 -8.63655e-05)
(-0.0016017 -7.57298e-21 -8.90815e-05)
(-0.00163774 -9.74362e-21 -9.17724e-05)
(-0.00167485 -7.40078e-21 -9.44308e-05)
(-0.00171302 -7.21453e-21 -9.70482e-05)
(-0.00175223 -8.86135e-21 -9.96155e-05)
(-0.00179246 -7.90973e-21 -0.000102122)
(-0.00183369 -7.98253e-21 -0.000104558)
(-0.00187588 -9.14487e-21 -0.000106909)
(-0.00191901 -9.79797e-21 -0.000109162)
(-0.00196302 -9.38423e-21 -0.000111303)
(-0.00200788 -8.69988e-21 -0.000113315)
(-0.00205352 7.82034e-21 -0.000115181)
(-0.0020999 -8.9644e-21 -0.00011688)
(-0.00214694 -8.67846e-21 -0.000118393)
(-0.00219456 -1.03725e-20 -0.000119698)
(-0.00224268 -1.17541e-20 -0.000120769)
(-0.0022912 -1.33081e-20 -0.000121581)
(-0.00234001 -9.23256e-21 -0.000122108)
(-0.00238901 -1.3599e-20 -0.00012232)
(-0.00243805 -1.11398e-20 -0.000122185)
(-0.002487 -3.82383e-22 -0.000121672)
(-0.00253569 -1.07865e-20 -0.000120745)
(-0.00258397 -1.29371e-20 -0.00011937)
(-0.00263164 -1.1407e-20 -0.000117507)
(-0.00267851 -1.11348e-20 -0.000115118)
(-0.00272435 -1.21993e-20 -0.000112164)
(-0.00276894 -1.30951e-20 -0.000108604)
(-0.00281204 -1.36171e-20 -0.000104396)
(-0.00285336 -1.37275e-20 -9.94976e-05)
(-0.00289263 -1.37385e-20 -9.38681e-05)
(-0.00292956 -1.4508e-20 -8.7466e-05)
(-0.00296381 -1.35939e-20 -8.02514e-05)
(-0.00299507 -9.56532e-22 -7.21859e-05)
(-0.00302298 -1.32004e-20 -6.3234e-05)
(-0.00304717 2.61507e-20 -5.33631e-05)
(-0.00306728 -1.1049e-20 -4.25453e-05)
(-0.00308292 1.24254e-20 -3.07556e-05)
(-0.00309369 -1.3709e-20 -1.79833e-05)
(-0.00309918 1.40481e-20 -4.21642e-06)
(-0.00309901 -1.20121e-20 1.05668e-05)
(-0.00309273 1.33045e-20 2.63506e-05)
(-0.00307996 1.36061e-20 4.31065e-05)
(-0.00306031 -1.22676e-20 6.08131e-05)
(-0.00303338 1.08122e-20 7.94313e-05)
(-0.0029988 -1.05464e-20 9.89086e-05)
(-0.00295625 2.24946e-20 0.000119178)
(-0.00290539 -1.13946e-20 0.00014016)
(-0.00284595 1.15493e-20 0.000161759)
(-0.00277768 -8.09677e-21 0.000183863)
(-0.0027004 1.27334e-20 0.00020635)
(-0.00261397 9.99876e-21 0.000229078)
(-0.00251829 -9.14521e-21 0.000251897)
(-0.00241336 9.26877e-21 0.000274641)
(-0.00229922 -1.02588e-20 0.000297134)
(-0.002176 8.92993e-21 0.000319193)
(-0.00204391 -6.55107e-21 0.000340628)
(-0.00190323 1.59658e-20 0.000361245)
(-0.00175433 -1.1896e-21 0.000380851)
(-0.00159765 -5.3734e-21 0.00039926)
(-0.00143373 1.31617e-20 0.00041629)
(-0.0012632 -4.13871e-21 0.000431781)
(-0.00108685 8.93089e-21 0.000445301)
(-0.00090612 -3.53851e-21 0.000459642)
(-0.000722269 2.61896e-21 0.000458362)
(-0.00056984 -3.89178e-21 0.000501855)
(-0.00049202 1.92046e-21 0.000418415)
(-0.00164329 2.76814e-21 0.000472783)
(-0.00179502 -1.03808e-20 0.000558533)
(-0.00181901 8.25772e-21 0.000463726)
(-0.00160707 3.28408e-21 0.000499803)
(-0.00138903 1.23455e-20 0.000536877)
(-0.00114461 -6.15045e-21 0.000566634)
(-0.000898653 3.62752e-21 0.000593396)
(-0.000648499 -2.22264e-21 0.000611686)
(-0.00040542 1.83329e-21 0.000623892)
(-0.00020918 -2.2312e-21 0.000632667)
(-0.00100412 -2.59584e-25 -1.6559e-06)
(-0.00100676 -1.28583e-23 -5.03402e-06)
(-0.00100863 -2.98009e-22 -8.4027e-06)
(-0.0010112 -4.31747e-21 -1.16997e-05)
(-0.00101471 4.2949e-21 -1.50365e-05)
(-0.00101931 4.80224e-21 -1.84113e-05)
(-0.00102498 4.69037e-21 -2.17949e-05)
(-0.00103165 -2.12561e-23 -2.51876e-05)
(-0.0010393 -3.86516e-21 -2.85935e-05)
(-0.00104793 4.27765e-21 -3.2015e-05)
(-0.00105754 -4.66878e-21 -3.54542e-05)
(-0.00106813 -4.65877e-22 -3.89125e-05)
(-0.0010797 -3.91228e-21 -4.23915e-05)
(-0.00109227 4.51389e-21 -4.58926e-05)
(-0.00110584 -4.43209e-21 -4.94169e-05)
(-0.00112042 -4.83641e-22 -5.29656e-05)
(-0.00113602 -4.68757e-21 -5.65393e-05)
(-0.00115264 -6.32863e-21 -6.01387e-05)
(-0.00117028 -5.69133e-21 -6.37642e-05)
(-0.00118897 -5.77175e-21 -6.74159e-05)
(-0.0012087 -5.43698e-21 -7.10938e-05)
(-0.00122949 -7.05054e-21 -7.47975e-05)
(-0.00125134 1.02948e-22 -7.85264e-05)
(-0.00127426 5.69654e-21 -8.22794e-05)
(-0.00129825 -4.59386e-21 -8.6055e-05)
(-0.00132333 1.03044e-20 -8.98513e-05)
(-0.00134949 -1.23033e-20 -9.36657e-05)
(-0.00137675 -6.53272e-21 -9.74954e-05)
(-0.00140511 -4.53285e-21 -0.000101337)
(-0.00143458 -5.60233e-21 -0.000105185)
(-0.00146514 -7.00538e-21 -0.000109037)
(-0.00149682 3.45256e-22 -0.000112886)
(-0.0015296 1.37227e-20 -0.000116726)
(-0.00156348 6.26853e-21 -0.00012055)
(-0.00159846 2.82688e-22 -0.000124349)
(-0.00163454 7.84618e-21 -0.000128114)
(-0.00167169 8.55383e-21 -0.000131835)
(-0.00170991 8.50385e-21 -0.0001355)
(-0.00174919 8.16976e-21 -0.000139097)
(-0.0017895 8.80233e-21 -0.000142611)
(-0.00183082 8.29504e-21 -0.000146026)
(-0.00187312 3.18914e-22 -0.000149326)
(-0.00191637 8.79447e-21 -0.000152491)
(-0.00196053 9.34721e-21 -0.000155501)
(-0.00200555 1.10429e-20 -0.000158334)
(-0.00205138 9.48128e-21 -0.000160964)
(-0.00209797 9.21526e-21 -0.000163365)
(-0.00214524 1.12074e-20 -0.000165507)
(-0.00219313 3.53576e-22 -0.000167361)
(-0.00224154 1.00119e-20 -0.000168893)
(-0.00229038 8.23485e-21 -0.000170066)
(-0.00233956 -3.03413e-22 -0.000170843)
(-0.00238894 1.07379e-21 -0.000171182)
(-0.00243842 2.08907e-20 -0.000171042)
(-0.00248784 8.66374e-23 -0.000170375)
(-0.00253705 5.0201e-22 -0.000169135)
(-0.00258588 2.35304e-20 -0.00016727)
(-0.00263416 1.25467e-20 -0.000164727)
(-0.00268168 1.23232e-20 -0.000161453)
(-0.00272822 4.24502e-22 -0.000157392)
(-0.00277356 1.05302e-20 -0.000152485)
(-0.00281745 1.28235e-20 -0.000146676)
(-0.00285963 1.29155e-20 -0.000139904)
(-0.0028998 1.39995e-20 -0.000132111)
(-0.00293767 1.37883e-20 -0.000123238)
(-0.00297292 6.34197e-22 -0.00011323)
(-0.00300522 1.04098e-21 -0.000102032)
(-0.00303421 1.53216e-20 -8.95918e-05)
(-0.00305952 1.63724e-21 -7.58642e-05)
(-0.00308078 1.34627e-20 -6.08085e-05)
(-0.00309759 -1.29382e-20 -4.43885e-05)
(-0.00310955 1.52814e-20 -2.6586e-05)
(-0.00311624 1.59455e-20 -7.39083e-06)
(-0.00311727 1.44464e-20 1.3239e-05)
(-0.00311218 -1.37273e-20 3.52856e-05)
(-0.00310057 1.57242e-20 5.86992e-05)
(-0.00308204 1.64062e-20 8.3458e-05)
(-0.00305617 -1.4486e-20 0.000109508)
(-0.00302259 1.31817e-20 0.000136778)
(-0.00298095 4.48771e-21 0.000165175)
(-0.00293089 1.36892e-20 0.000194589)
(-0.00287213 -1.25212e-20 0.000224886)
(-0.00280441 9.9622e-21 0.000255913)
(-0.00272751 1.2182e-20 0.000287495)
(-0.00264128 -6.81173e-21 0.000319437)
(-0.00254562 1.13448e-20 0.000351524)
(-0.0024405 1.34475e-20 0.000383525)
(-0.00232595 1.1904e-20 0.000415191)
(-0.00220211 -1.01785e-20 0.000446262)
(-0.00206916 6.958e-21 0.000476469)
(-0.00192739 3.82862e-22 0.000505535)
(-0.00177716 2.11732e-21 0.000533184)
(-0.00161893 4.78544e-21 0.000559144)
(-0.00145324 1.16504e-21 0.000583147)
(-0.00128074 6.08775e-21 0.000604943)
(-0.00110218 7.19833e-22 0.000623894)
(-0.000919011 3.95736e-21 0.00064399)
(-0.000732294 4.2154e-21 0.000641423)
(-0.000575919 5.28021e-21 0.000703982)
(-0.000499401 -1.90029e-21 0.000587468)
(-0.00165086 -1.71324e-21 0.000674249)
(-0.0018349 1.31491e-20 0.000804501)
(-0.00187018 -7.73533e-21 0.000682263)
(-0.00165993 -4.29302e-21 0.00075963)
(-0.00142846 2.35196e-21 0.000783282)
(-0.00117712 9.51533e-21 0.000817596)
(-0.000922415 -2.3725e-22 0.000845938)
(-0.000665361 -8.93571e-22 0.000867442)
(-0.000415939 -1.01738e-21 0.000882035)
(-0.000214697 2.93338e-21 0.000893028)
(-0.0010003 -1.20984e-25 -2.12424e-06)
(-0.00100294 -6.38271e-24 -6.46076e-06)
(-0.00100481 -1.45717e-22 -1.07906e-05)
(-0.00100737 2.92119e-23 -1.50296e-05)
(-0.00101088 3.97084e-22 -1.93171e-05)
(-0.00101546 2.43618e-22 -2.36506e-05)
(-0.00102111 4.28646e-23 -2.79941e-05)
(-0.00102777 -2.04943e-22 -3.23494e-05)
(-0.00103541 9.19642e-23 -3.67222e-05)
(-0.00104402 1.06103e-22 -4.11157e-05)
(-0.0010536 -5.72327e-22 -4.55323e-05)
(-0.00106417 2.67193e-22 -4.99739e-05)
(-0.00107572 6.10368e-22 -5.44424e-05)
(-0.00108826 1.12797e-22 -5.89397e-05)
(-0.00110181 -1.0552e-21 -6.34671e-05)
(-0.00111636 -2.77604e-22 -6.8026e-05)
(-0.00113192 -9.96758e-22 -7.26176e-05)
(-0.00114851 -5.81695e-22 -7.72425e-05)
(-0.00116613 -3.31808e-22 -8.19013e-05)
(-0.00118478 1.87876e-23 -8.65944e-05)
(-0.00120449 -9.67932e-22 -9.13216e-05)
(-0.00122524 8.4994e-22 -9.60826e-05)
(-0.00124706 9.80482e-22 -0.000100877)
(-0.00126995 -7.05807e-22 -0.000105702)
(-0.00129392 -1.79379e-22 -0.000110557)
(-0.00131898 1.06196e-21 -0.00011544)
(-0.00134512 -1.52196e-22 -0.000120347)
(-0.00137237 -5.10592e-22 -0.000125274)
(-0.00140072 -1.41035e-21 -0.000130217)
(-0.00143017 9.9246e-22 -0.000135172)
(-0.00146074 -3.97016e-22 -0.000140131)
(-0.00149242 1.28592e-21 -0.000145088)
(-0.00152521 1.35089e-21 -0.000150035)
(-0.00155912 -3.4907e-22 -0.000154962)
(-0.00159413 6.50685e-22 -0.00015986)
(-0.00163025 2.94978e-22 -0.000164716)
(-0.00166746 -1.88327e-22 -0.000169518)
(-0.00170576 9.21989e-22 -0.00017425)
(-0.00174512 -5.78463e-22 -0.000178896)
(-0.00178553 2.53492e-22 -0.000183438)
(-0.00182697 3.1623e-22 -0.000187856)
(-0.00186942 -1.90023e-22 -0.000192129)
(-0.00191283 3.4443e-22 -0.000196232)
(-0.00195718 7.87189e-22 -0.000200139)
(-0.00200241 5.67444e-22 -0.000203821)
(-0.00204849 -4.8133e-22 -0.000207246)
(-0.00209535 1.21879e-21 -0.00021038)
(-0.00214294 3.89351e-22 -0.000213187)
(-0.00219117 -5.03774e-22 -0.000215627)
(-0.00223997 4.02535e-22 -0.000217656)
(-0.00228924 2.83214e-21 -0.00021923)
(-0.00233889 -1.38403e-21 -0.000220298)
(-0.0023888 3.88889e-21 -0.000220809)
(-0.00243885 8.71679e-22 -0.000220707)
(-0.00248889 -1.41939e-21 -0.000219934)
(-0.00253879 -4.67162e-22 -0.000218426)
(-0.00258836 1.06589e-21 -0.00021612)
(-0.00263744 8.38034e-22 -0.000212947)
(-0.00268583 5.0984e-22 -0.000208837)
(-0.0027333 2.14069e-22 -0.000203718)
(-0.00277964 6.71331e-22 -0.000197514)
(-0.0028246 2.90135e-21 -0.000190151)
(-0.00286791 9.21122e-22 -0.000181552)
(-0.00290928 -2.99315e-22 -0.000171639)
(-0.00294842 3.72581e-22 -0.000160336)
(-0.002985 3.05936e-21 -0.00014757)
(-0.00301869 7.45802e-22 -0.000133269)
(-0.00304912 1.62441e-22 -0.000117365)
(-0.00307594 6.05458e-22 -9.97966e-05)
(-0.00309874 8.2624e-22 -8.05097e-05)
(-0.00311713 -7.95877e-22 -5.94559e-05)
(-0.00313069 8.56785e-22 -3.66048e-05)
(-0.00313899 -1.03648e-21 -1.19586e-05)
(-0.00314165 8.47948e-22 1.45607e-05)
(-0.00313816 -2.54634e-22 4.29362e-05)
(-0.00312812 1.70336e-21 7.30835e-05)
(-0.0031111 1.36814e-21 0.000104991)
(-0.00308668 -4.40328e-22 0.000138591)
(-0.00305446 4.50489e-22 0.000173791)
(-0.00301405 1.50658e-21 0.000210476)
(-0.0029651 8.22471e-22 0.000248504)
(-0.00290727 -7.13638e-22 0.000287704)
(-0.0028403 -6.12542e-22 0.000327879)
(-0.00276394 4.93087e-21 0.000368804)
(-0.00267801 -2.16866e-21 0.000410225)
(-0.00258239 -1.88008e-21 0.000451865)
(-0.00247704 1.29237e-21 0.000493421)
(-0.00236198 3.47243e-21 0.000534571)
(-0.0022373 9.28772e-23 0.000574973)
(-0.00210321 4.22557e-22 0.000614273)
(-0.00195998 2.77619e-21 0.00065211)
(-0.00180797 -5.57911e-21 0.000688117)
(-0.00164764 3.39781e-21 0.000721934)
(-0.00147955 -2.84987e-22 0.000753202)
(-0.00130436 -1.00242e-23 0.000781591)
(-0.00112283 -6.73446e-22 0.000806266)
(-0.000936407 -3.28814e-21 0.000832441)
(-0.000746208 5.53753e-22 0.000829211)
(-0.000586278 3.25183e-21 0.000910869)
(-0.000509115 1.48828e-21 0.000761559)
(-0.00166816 -1.29107e-19 0.00087625)
(-0.00186222 -5.22955e-21 0.00103596)
(-0.00189149 4.87604e-21 0.00089914)
(-0.00169831 9.38907e-23 0.00100815)
(-0.00146476 -5.35889e-21 0.00103198)
(-0.00121031 -6.83736e-23 0.00107377)
(-0.000949206 1.47015e-22 0.00110637)
(-0.000685121 -4.73771e-21 0.00113173)
(-0.000428596 9.23177e-21 0.00114904)
(-0.000221569 5.68864e-21 0.00116239)
(-0.000995542 -1.08598e-25 -2.59246e-06)
(-0.000998173 -4.67463e-24 -7.88587e-06)
(-0.00100004 -1.02738e-22 -1.31736e-05)
(-0.00100259 -1.18381e-22 -1.83516e-05)
(-0.00100608 3.94467e-22 -2.35877e-05)
(-0.00101065 3.61514e-23 -2.88788e-05)
(-0.00101629 -5.19367e-22 -3.41813e-05)
(-0.00102292 2.93554e-22 -3.94982e-05)
(-0.00103054 4.51148e-21 -4.48368e-05)
(-0.00103912 4.97636e-23 -5.0201e-05)
(-0.00104868 4.48812e-21 -5.55938e-05)
(-0.00105922 4.09413e-22 -6.10177e-05)
(-0.00107074 4.79702e-21 -6.64748e-05)
(-0.00108325 8.46113e-23 -7.19675e-05)
(-0.00109676 4.09768e-21 -7.74974e-05)
(-0.00111127 4.75861e-22 -8.30664e-05)
(-0.0011268 6.17964e-21 -8.86757e-05)
(-0.00114335 4.80487e-21 -9.43264e-05)
(-0.00116093 -5.02467e-21 -0.000100019)
(-0.00117955 7.04364e-21 -0.000105755)
(-0.00119921 5.7629e-21 -0.000111533)
(-0.00121993 6.54227e-21 -0.000117353)
(-0.00124172 5.29929e-22 -0.000123214)
(-0.00126457 5.63226e-21 -0.000129115)
(-0.00128851 -9.16111e-22 -0.000135053)
(-0.00131354 5.08384e-21 -0.000141026)
(-0.00133966 -9.8012e-22 -0.000147029)
(-0.00136688 -5.75336e-21 -0.00015306)
(-0.00139521 6.57926e-21 -0.000159111)
(-0.00142466 6.22238e-21 -0.000165178)
(-0.00145523 6.05771e-21 -0.000171253)
(-0.00148691 6.11173e-22 -0.000177327)
(-0.00151972 6.38977e-21 -0.000183391)
(-0.00155365 -3.99291e-22 -0.000189434)
(-0.00158871 5.27361e-22 -0.000195443)
(-0.00162487 -7.7899e-22 -0.000201404)
(-0.00166215 2.86853e-22 -0.000207301)
(-0.00170053 -6.59223e-21 -0.000213117)
(-0.00174 -1.81009e-21 -0.000218831)
(-0.00178054 5.85361e-22 -0.000224423)
(-0.00182212 4.79675e-22 -0.000229867)
(-0.00186474 7.38906e-22 -0.000235138)
(-0.00190836 2.13469e-22 -0.000240206)
(-0.00195293 8.84937e-22 -0.000245039)
(-0.00199844 2.50349e-21 -0.000249602)
(-0.00204482 7.86616e-21 -0.000253857)
(-0.00209202 -8.63656e-23 -0.000257763)
(-0.00213999 -2.612e-21 -0.000261274)
(-0.00218865 8.77928e-22 -0.000264343)
(-0.00223792 2.28451e-21 -0.000266916)
(-0.00228773 -4.27378e-22 -0.00026894)
(-0.00233797 1.07083e-21 -0.000270352)
(-0.00238853 2.5567e-21 -0.00027109)
(-0.00243928 -7.3065e-22 -0.000271085)
(-0.00249011 -1.04998e-20 -0.000270266)
(-0.00254085 7.16541e-22 -0.000268556)
(-0.00259135 3.67556e-23 -0.000265876)
(-0.00264143 9.43519e-22 -0.000262142)
(-0.00269089 3.25161e-23 -0.000257268)
(-0.00273953 1.09792e-21 -0.000251164)
(-0.00278712 3.07443e-21 -0.000243738)
(-0.0028334 8.20033e-22 -0.000234897)
(-0.00287813 -1.05667e-20 -0.000224544)
(-0.002921 -6.31103e-22 -0.000212585)
(-0.00296173 5.50796e-22 -0.000198924)
(-0.00299998 2.13146e-21 -0.000183468)
(-0.00303541 9.10823e-22 -0.000166128)
(-0.00306767 1.50805e-21 -0.000146818)
(-0.00309637 1.32528e-20 -0.00012546)
(-0.00312112 2.43141e-22 -0.000101984)
(-0.0031415 -1.73809e-21 -7.63276e-05)
(-0.00315709 9.11855e-22 -4.84434e-05)
(-0.00316744 1.30578e-20 -1.83547e-05)
(-0.00317213 9.98492e-22 1.40653e-05)
(-0.00317068 2.32379e-22 4.8805e-05)
(-0.00316264 1.34955e-20 8.57352e-05)
(-0.00314756 -7.6098e-22 0.000124865)
(-0.00312499 2.21415e-21 0.000166111)
(-0.0030945 -2.56891e-21 0.000209365)
(-0.00305569 1.27732e-20 0.000254488)
(-0.00300815 7.68093e-22 0.000301306)
(-0.00295154 -4.99792e-23 0.000349615)
(-0.00288555 -2.46925e-22 0.000399171)
(-0.0028099 1.08757e-20 0.000449697)
(-0.00272439 -1.75887e-21 0.000500883)
(-0.00262887 -4.44972e-21 0.000552384)
(-0.00252326 1.10267e-20 0.000603824)
(-0.00240757 3.71138e-21 0.000654803)
(-0.00228188 1.45781e-21 0.000704894)
(-0.00214637 -1.12937e-21 0.000753655)
(-0.0020013 9.02482e-21 0.000800632)
(-0.00184705 3.22256e-21 0.000845363)
(-0.00168408 -2.85085e-21 0.000887395)
(-0.00151296 5.64199e-21 0.000926275)
(-0.00133435 -8.00132e-22 0.000961586)
(-0.00114906 4.51145e-21 0.000992296)
(-0.000958557 -1.35291e-22 0.00102484)
(-0.000764054 3.7638e-21 0.00102117)
(-0.000600196 5.31712e-21 0.00112204)
(-0.000521306 4.32942e-22 0.000939005)
(-0.00169565 -1.36428e-22 0.0010829)
(-0.00190155 1.90606e-20 0.00127602)
(-0.00193544 6.25347e-22 0.00112059)
(-0.00174765 -6.19849e-21 0.00125709)
(-0.00150954 3.76725e-21 0.0012856)
(-0.00124947 6.56033e-21 0.00133603)
(-0.000980833 7.69791e-21 0.0013744)
(-0.000708486 -1.16038e-20 0.0014043)
(-0.000443664 -5.20228e-21 0.00142471)
(-0.000229917 8.77182e-21 0.00144065)
(-0.000989838 -8.80775e-26 -3.05959e-06)
(-0.000992457 -3.91494e-24 -9.3072e-06)
(-0.000994314 -9.63373e-23 -1.55491e-05)
(-0.000996861 3.97684e-22 -2.16622e-05)
(-0.00100034 2.79888e-22 -2.78436e-05)
(-0.00100489 8.4192e-23 -3.40894e-05)
(-0.0010105 -1.98683e-22 -4.03484e-05)
(-0.00101712 -3.06126e-22 -4.66245e-05)
(-0.0010247 -4.20386e-21 -5.29263e-05)
(-0.00103326 -5.00781e-21 -5.92588e-05)
(-0.00104278 -4.86468e-21 -6.56255e-05)
(-0.00105329 -5.59257e-22 -7.20294e-05)
(-0.00106477 -4.15648e-21 -7.84731e-05)
(-0.00107724 -5.34407e-21 -8.49593e-05)
(-0.00109071 -4.84751e-21 -9.14903e-05)
(-0.00110518 2.7478e-22 -9.8068e-05)
(-0.00112066 -4.42152e-21 -0.000104694)
(-0.00113717 -4.98559e-21 -0.00011137)
(-0.0011547 7.44558e-22 -0.000118096)
(-0.00117327 -5.42701e-21 -0.000124874)
(-0.00119289 -4.7824e-21 -0.000131703)
(-0.00121356 -5.47185e-21 -0.000138584)
(-0.0012353 6.4352e-22 -0.000145514)
(-0.00125811 -5.78685e-21 -0.000152492)
(-0.00128201 2.03395e-22 -0.000159516)
(-0.001307 -6.76685e-21 -0.000166583)
(-0.00133309 1.00621e-20 -0.000173688)
(-0.00136028 2.71562e-21 -0.000180827)
(-0.0013886 -5.65386e-21 -0.000187993)
(-0.00141803 -7.56272e-21 -0.00019518)
(-0.00144859 -5.64394e-21 -0.000202378)
(-0.00148028 1.18284e-21 -0.00020958)
(-0.0015131 -6.51509e-21 -0.000216772)
(-0.00154707 -1.65491e-21 -0.000223943)
(-0.00158216 1.35617e-20 -0.000231077)
(-0.00161839 1.12234e-21 -0.000238159)
(-0.00165574 1.45891e-20 -0.00024517)
(-0.00169422 1.16028e-21 -0.00025209)
(-0.00173381 5.80383e-22 -0.000258895)
(-0.00177449 1.58179e-20 -0.00026556)
(-0.00181625 1.38275e-21 -0.000272057)
(-0.00185907 1.79768e-20 -0.000278355)
(-0.00190292 1.51609e-21 -0.00028442)
(-0.00194777 1.7978e-20 -0.000290214)
(-0.00199359 1.63374e-21 -0.000295697)
(-0.00204032 -9.63867e-21 -0.000300824)
(-0.00208793 1.93606e-20 -0.000305545)
(-0.00213635 1.65319e-21 -0.00030981)
(-0.00218552 2.21401e-20 -0.00031356)
(-0.00223536 1.74383e-21 -0.000316734)
(-0.00228579 2.14148e-20 -0.000319267)
(-0.00233673 2.35945e-20 -0.000321087)
(-0.00238806 2.56617e-20 -0.00032212)
(-0.00243966 -8.11728e-22 -0.000322284)
(-0.00249141 1.00146e-22 -0.000321495)
(-0.00254316 2.65278e-20 -0.000319662)
(-0.00259476 1.56054e-21 -0.000316691)
(-0.00264603 2.17889e-20 -0.000312483)
(-0.00269679 1.89383e-21 -0.000306934)
(-0.00274682 2.53635e-20 -0.000299937)
(-0.00279589 2.02952e-21 -0.000291383)
(-0.00284378 2.24103e-20 -0.000281157)
(-0.0028902 1.19956e-21 -0.000269146)
(-0.00293488 1.19273e-21 -0.000255235)
(-0.00297752 2.8636e-20 -0.000239308)
(-0.00301778 2.57817e-20 -0.000221251)
(-0.00305532 1.02125e-21 -0.000200956)
(-0.00308978 -1.01364e-21 -0.000178319)
(-0.00312076 -1.22126e-20 -0.00015324)
(-0.00314786 -1.25884e-21 -0.000125635)
(-0.00317066 6.12046e-22 -9.54234e-05)
(-0.00318872 -4.2392e-22 -6.25432e-05)
(-0.00320157 -1.26398e-20 -2.70047e-05)
(-0.00320874 -6.08966e-22 1.13199e-05)
(-0.00320978 1.99526e-22 5.24301e-05)
(-0.00320419 -1.50751e-20 9.62032e-05)
(-0.00319149 9.0389e-23 0.000142637)
(-0.0031712 5.37156e-22 0.00019164)
(-0.00314286 -1.78906e-21 0.000243088)
(-0.00310602 -1.20502e-20 0.000296822)
(-0.00306026 6.66599e-22 0.000352639)
(-0.00300518 5.95872e-22 0.000410298)
(-0.00294043 -4.76074e-21 0.000469512)
(-0.00286571 -8.2517e-21 0.000529952)
(-0.00278076 2.2813e-23 0.000591247)
(-0.0026854 -5.99995e-21 0.000652982)
(-0.00257954 -1.13391e-20 0.000714709)
(-0.00246313 5.74176e-21 0.00077594)
(-0.00233624 2.49372e-22 0.000836162)