/*--------------------------------*- C++ -*----------------------------------*\
| =========                 |                                                 |
| \\      /  F ield         | OpenFOAM: The Open Source CFD Toolbox           |
|  \\    /   O peration     | Version:  v2106                                 |
|   \\  /    A nd           | Website:  www.openfoam.com                      |
|    \\/     M anipulation  |                                                 |
\*---------------------------------------------------------------------------*/
FoamFile
{
    version     2.0;
    format      ascii;
    arch        "LSB;label=32;scalar=64";
    class       volScalarField;
    location    "1.5";
    object      k;
}
// * * * * * * * * * * * * * * * * * * * * * * * * * * * * * * * * * * * * * //

dimensions      [0 2 -2 0 0 0 0];

internalField   nonuniform List<scalar> 
29678
(
0.000123769
0.000178579
0.000197822
0.000205057
0.000208388
0.000210182
0.000211257
0.000211951
0.000212425
0.000212766
0.000213026
0.000213236
0.000213416
0.000213579
0.000213732
0.000213881
0.000214028
0.000214176
0.000214324
0.00021447
0.000214617
0.000214764
0.000214915
0.000215068
0.000215227
0.000215393
0.000215568
0.000215752
0.000215948
0.000216159
0.000216385
0.00021663
0.000216896
0.000217188
0.000217508
0.000217844
0.000218174
0.000218496
0.000218812
0.000219121
0.000219424
0.000219697
0.000219931
0.000220191
0.000220493
0.000220796
0.000221071
0.000221227
0.000221292
0.000221296
0.000221268
0.000221228
0.000221195
0.000221186
0.000221205
0.000221256
0.000221339
0.000221444
0.000221568
0.000221705
0.000221835
0.00022196
0.000222083
0.000222197
0.000222306
0.000222417
0.000222497
0.0002225
0.000222402
0.000222186
0.000221836
0.00022134
0.000221034
0.000220985
0.000220941
0.000220679
0.000220321
0.000220083
0.000220354
0.00022123
0.000222049
0.000222583
0.000223015
0.000223433
0.000223881
0.000224383
0.000224941
0.000224866
0.000225458
0.000226725
0.000227602
0.00022847
0.000229607
0.000231653
0.000236256
0.000248429
0.000276273
0.000322119
0.000361057
0.000364777
0.0003618
0.000329411
0.000301465
0.000281251
0.000264319
0.000250604
0.000239605
0.000231747
0.000226216
0.000221326
0.000123754
0.000178623
0.000197874
0.000205123
0.000208467
0.000210272
0.000211357
0.000212059
0.00021254
0.000212887
0.000213151
0.000213366
0.000213551
0.000213719
0.000213879
0.000214036
0.000214193
0.000214348
0.000214504
0.000214661
0.000214821
0.000214986
0.000215155
0.000215332
0.000215516
0.000215711
0.000215918
0.000216139
0.000216375
0.00021663
0.000216906
0.000217207
0.000217534
0.000217873
0.000218207
0.000218536
0.000218862
0.000219185
0.000219504
0.000219821
0.000220134
0.000220446
0.000220755
0.000221064
0.00022137
0.000221669
0.000221923
0.000222063
0.000222119
0.000222116
0.000222081
0.000222042
0.000222025
0.00022203
0.000222065
0.000222135
0.000222242
0.000222373
0.000222522
0.000222682
0.000222835
0.000222982
0.000223125
0.000223256
0.00022337
0.000223454
0.000223488
0.000223454
0.000223337
0.000223104
0.000222656
0.000221981
0.00022112
0.000220154
0.000219295
0.000218776
0.000218672
0.000219128
0.000219973
0.000220835
0.000221307
0.000221648
0.000221986
0.000222377
0.000222853
0.000223428
0.00022411
0.000224586
0.000224944
0.000225836
0.000227093
0.000228185
0.000229332
0.000231359
0.000235103
0.000245175
0.000269462
0.000312629
0.000350999
0.000354043
0.000356677
0.000326352
0.000303367
0.00028401
0.000267364
0.000252975
0.000240884
0.000231566
0.000224552
0.000219572
0.000123752
0.00017868
0.000197943
0.000205212
0.000208576
0.000210399
0.000211497
0.00021221
0.000212699
0.000213052
0.000213321
0.000213538
0.000213725
0.000213895
0.000214057
0.000214216
0.000214377
0.000214537
0.000214698
0.000214861
0.000215029
0.0002152
0.000215378
0.000215562
0.000215755
0.000215959
0.000216174
0.000216404
0.00021665
0.000216914
0.000217199
0.000217507
0.000217842
0.000218185
0.000218523
0.000218856
0.000219186
0.000219511
0.000219834
0.000220153
0.000220469
0.000220783
0.000221094
0.0002214
0.000221701
0.000221996
0.000222283
0.000222502
0.000222627
0.000222671
0.000222646
0.000222561
0.000222439
0.000222342
0.000222289
0.000222274
0.000222293
0.000222339
0.000222408
0.000222495
0.00022259
0.000222687
0.000222781
0.000222869
0.000222944
0.000223004
0.000223036
0.000223018
0.000222926
0.000222729
0.000222392
0.000221887
0.000221189
0.000220356
0.000219612
0.000219187
0.000219183
0.000219525
0.000220024
0.00022058
0.00022112
0.000221494
0.000221865
0.000222288
0.000222793
0.000223399
0.000224119
0.000224862
0.000225571
0.000226483
0.000227562
0.00022872
0.000230031
0.000231688
0.000234695
0.000242371
0.000261992
0.000302756
0.000338208
0.00033874
0.000352279
0.000325835
0.000303787
0.000286287
0.000270515
0.000256099
0.000243204
0.000232851
0.000225107
0.000219745
0.000123747
0.000178748
0.000198029
0.000205323
0.000208711
0.000210552
0.000211663
0.000212384
0.000212877
0.000213232
0.000213502
0.000213719
0.000213906
0.000214075
0.000214237
0.000214397
0.000214559
0.000214722
0.000214886
0.000215053
0.000215224
0.0002154
0.000215582
0.00021577
0.000215968
0.000216176
0.000216396
0.00021663
0.00021688
0.000217148
0.000217436
0.000217747
0.000218082
0.00021843
0.000218772
0.000219109
0.000219442
0.00021977
0.000220094
0.000220414
0.000220731
0.000221043
0.000221352
0.000221657
0.000221956
0.00022225
0.000222533
0.000222737
0.000222839
0.000222856
0.000222797
0.000222673
0.000222522
0.000222419
0.000222357
0.000222337
0.000222355
0.000222407
0.000222487
0.000222587
0.000222698
0.000222813
0.000222924
0.000223024
0.000223107
0.000223162
0.000223173
0.00022312
0.000222981
0.000222739
0.000222379
0.000221898
0.000221315
0.000220697
0.000220174
0.000219879
0.000219861
0.000220092
0.000220511
0.000221047
0.000221572
0.00022196
0.000222348
0.000222786
0.0002233
0.000223907
0.000224602
0.000225338
0.000226116
0.000227066
0.000228196
0.000229427
0.000230748
0.000232325
0.000234894
0.0002409
0.000256682
0.000292878
0.000328507
0.000328814
0.000345372
0.000322311
0.000301625
0.000285822
0.000271721
0.000258248
0.000245552
0.00023487
0.000226498
0.000220353
0.000123735
0.000178823
0.000198129
0.000205453
0.000208866
0.000210724
0.000211844
0.000212569
0.000213063
0.000213416
0.000213682
0.000213897
0.000214081
0.00021425
0.000214412
0.000214573
0.000214738
0.000214904
0.000215071
0.000215242
0.000215417
0.000215597
0.000215783
0.000215976
0.000216179
0.000216392
0.000216618
0.000216857
0.000217112
0.000217385
0.000217678
0.000217992
0.000218329
0.000218681
0.000219028
0.00021937
0.000219706
0.000220038
0.000220365
0.000220688
0.000221006
0.00022132
0.000221629
0.000221932
0.000222229
0.000222516
0.00022273
0.000222863
0.000222924
0.000222922
0.000222865
0.000222769
0.000222664
0.000222585
0.000222539
0.000222526
0.000222543
0.000222588
0.000222654
0.000222736
0.000222824
0.000222912
0.000222992
0.000223058
0.000223102
0.000223116
0.000223089
0.000223007
0.000222858
0.000222628
0.000222315
0.000221927
0.000221486
0.000221041
0.000220672
0.000220452
0.000220402
0.000220518
0.000220785
0.000221171
0.000221644
0.000222158
0.000222609
0.000223077
0.000223607
0.000224209
0.000224877
0.000225617
0.000226441
0.000227382
0.000228452
0.000229629
0.000230929
0.000232464
0.000234684
0.000239423
0.000251581
0.000280878
0.000316567
0.000316627
0.000335747
0.000317541
0.000297754
0.000283524
0.000271549
0.000259532
0.000247351
0.000236494
0.000227588
0.000220831
0.000123713
0.000178905
0.000198242
0.0002056
0.000209039
0.000210912
0.000212039
0.000212764
0.000213254
0.000213602
0.000213864
0.000214074
0.000214256
0.000214424
0.000214587
0.000214752
0.00021492
0.000215088
0.000215259
0.000215433
0.000215612
0.000215795
0.000215986
0.000216185
0.000216393
0.000216612
0.000216844
0.00021709
0.000217351
0.000217631
0.000217929
0.000218248
0.000218589
0.000218946
0.000219299
0.000219646
0.000219988
0.000220325
0.000220657
0.000220984
0.000221306
0.000221623
0.000221934
0.000222239
0.000222539
0.000222831
0.000223099
0.000223288
0.000223402
0.000223448
0.000223434
0.00022337
0.000223282
0.000223203
0.000223146
0.000223117
0.000223114
0.000223136
0.000223179
0.000223236
0.000223301
0.000223369
0.00022343
0.000223477
0.000223504
0.000223501
0.000223457
0.00022336
0.0002232
0.000222977
0.000222694
0.000222359
0.000221993
0.000221642
0.000221362
0.000221198
0.000221169
0.000221283
0.000221536
0.00022191
0.000222375
0.000222773
0.000223166
0.000223609
0.000224124
0.000224721
0.000225403
0.000226167
0.000227035
0.000227996
0.000229071
0.000230259
0.000231563
0.000233073
0.000235034
0.000238887
0.000248285
0.000271185
0.00030557
0.000305624
0.000326756
0.000312143
0.000292395
0.000278645
0.000269386
0.000259434
0.000248414
0.000237908
0.000228727
0.000221391
0.000123681
0.000178993
0.000198369
0.000205765
0.00020923
0.000211116
0.000212248
0.000212971
0.000213456
0.000213797
0.000214052
0.000214258
0.000214438
0.000214606
0.000214772
0.000214941
0.000215111
0.000215281
0.000215454
0.000215631
0.000215813
0.000216001
0.000216197
0.000216401
0.000216616
0.000216842
0.000217081
0.000217335
0.000217605
0.000217892
0.000218197
0.000218523
0.00021887
0.000219234
0.000219594
0.000219948
0.000220297
0.00022064
0.000220978
0.00022131
0.000221638
0.000221959
0.000222275
0.000222584
0.000222886
0.000223179
0.000223419
0.00022359
0.000223698
0.000223752
0.000223762
0.000223743
0.000223709
0.000223676
0.000223655
0.000223652
0.000223668
0.000223703
0.000223752
0.000223811
0.000223874
0.000223934
0.000223984
0.000224017
0.000224024
0.000223998
0.000223927
0.000223805
0.000223632
0.000223414
0.000223153
0.000222858
0.000222553
0.000222266
0.000222034
0.000221886
0.000221841
0.000221908
0.000222092
0.000222381
0.000222757
0.00022319
0.000223623
0.000224074
0.000224578
0.000225154
0.000225806
0.000226543
0.000227392
0.000228343
0.000229407
0.0002306
0.000231886
0.000233387
0.000235139
0.000238367
0.000245652
0.000263313
0.000295266
0.000298032
0.000318632
0.000305378
0.000285918
0.000271773
0.000265019
0.000257346
0.00024823
0.000238858
0.00022972
0.000221939
0.000123638
0.000179087
0.00019851
0.000205946
0.000209437
0.000211336
0.000212471
0.000213192
0.00021367
0.000214004
0.000214253
0.000214455
0.000214634
0.000214804
0.000214973
0.000215143
0.000215313
0.000215484
0.000215659
0.000215839
0.000216025
0.000216219
0.000216421
0.000216632
0.000216855
0.000217089
0.000217338
0.000217601
0.00021788
0.000218177
0.000218492
0.000218826
0.00021918
0.000219551
0.00021992
0.000220283
0.000220639
0.00022099
0.000221336
0.000221675
0.000222009
0.000222336
0.000222657
0.000222972
0.000223279
0.000223577
0.00022383
0.000224024
0.000224162
0.000224251
0.000224301
0.000224322
0.000224324
0.000224321
0.000224321
0.00022433
0.000224351
0.000224384
0.000224427
0.000224475
0.000224524
0.000224569
0.000224603
0.000224619
0.000224611
0.000224571
0.000224489
0.000224363
0.000224199
0.000223997
0.000223759
0.000223496
0.000223226
0.000222977
0.000222773
0.00022264
0.000222595
0.000222652
0.000222813
0.000223072
0.000223411
0.000223802
0.000224189
0.000224615
0.000225106
0.000225675
0.000226327
0.000227069
0.000227918
0.00022888
0.000229931
0.00023112
0.000232342
0.000233817
0.000235339
0.000238056
0.000243738
0.000257726
0.000287371
0.000296015
0.000311809
0.000299435
0.000279993
0.000265147
0.000259739
0.000254078
0.000247111
0.000239067
0.000230558
0.000222492
0.000123584
0.000179188
0.000198663
0.000206142
0.000209659
0.000211571
0.000212711
0.000213429
0.000213901
0.000214227
0.00021447
0.000214668
0.000214847
0.000215018
0.000215188
0.000215356
0.000215525
0.000215698
0.000215876
0.000216061
0.000216253
0.000216453
0.000216663
0.000216883
0.000217115
0.000217359
0.000217618
0.000217892
0.000218182
0.00021849
0.000218815
0.00021916
0.000219523
0.000219903
0.000220282
0.000220654
0.00022102
0.00022138
0.000221733
0.000222081
0.000222423
0.000222758
0.000223086
0.000223407
0.00022372
0.000224025
0.000224291
0.000224505
0.000224671
0.000224792
0.000224878
0.000224936
0.000224976
0.000225006
0.000225034
0.000225064
0.000225099
0.00022514
0.000225185
0.000225231
0.000225275
0.000225312
0.000225335
0.000225341
0.000225322
0.000225271
0.000225181
0.000225056
0.000224891
0.000224688
0.000224457
0.000224211
0.000223964
0.000223736
0.000223548
0.00022342
0.000223368
0.000223406
0.000223537
0.000223753
0.000224042
0.000224391
0.000224755
0.000225163
0.000225635
0.000226183
0.000226815
0.000227537
0.000228359
0.000229303
0.000230309
0.000231482
0.000232588
0.000234063
0.000235347
0.000237683
0.000242184
0.000253904
0.000282201
0.000297047
0.000306828
0.00029465
0.000275025
0.000260001
0.000254823
0.000250946
0.000245613
0.000238873
0.0002311
0.000223016
0.000123517
0.000179295
0.000198828
0.000206351
0.000209895
0.000211822
0.000212968
0.000213684
0.000214148
0.000214466
0.000214703
0.000214898
0.000215076
0.000215246
0.000215412
0.000215578
0.000215749
0.000215926
0.000216109
0.0002163
0.000216499
0.000216707
0.000216926
0.000217156
0.000217398
0.000217654
0.000217924
0.00021821
0.000218513
0.000218833
0.000219171
0.000219527
0.000219902
0.000220293
0.000220682
0.000221064
0.000221441
0.000221811
0.000222174
0.000222532
0.000222882
0.000223226
0.000223563
0.000223892
0.000224213
0.000224525
0.000224811
0.00022505
0.000225245
0.000225401
0.000225523
0.000225618
0.000225693
0.000225755
0.000225809
0.00022586
0.00022591
0.00022596
0.000226009
0.000226054
0.000226094
0.000226123
0.000226137
0.000226133
0.000226104
0.000226045
0.000225955
0.000225828
0.000225663
0.000225468
0.000225247
0.000225012
0.000224777
0.000224558
0.000224374
0.000224242
0.000224179
0.000224196
0.000224296
0.000224474
0.000224719
0.000225024
0.00022536
0.000225742
0.00022619
0.000226714
0.000227319
0.00022801
0.000228784
0.000229653
0.000230542
0.000231659
0.00023261
0.000234028
0.000235082
0.000237171
0.000240956
0.000251346
0.000278814
0.000298538
0.000302929
0.000291834
0.000271391
0.000256054
0.000250865
0.00024811
0.000243843
0.000238302
0.000231341
0.00022347
0.000123439
0.000179408
0.000199005
0.000206572
0.000210144
0.000212089
0.000213242
0.000213955
0.000214411
0.000214721
0.000214951
0.000215143
0.000215316
0.00021548
0.000215644
0.000215813
0.000215989
0.000216171
0.00021636
0.000216558
0.000216765
0.000216983
0.000217211
0.000217452
0.000217706
0.000217974
0.000218257
0.000218556
0.000218873
0.000219207
0.000219559
0.00021993
0.000220318
0.000220722
0.000221122
0.000221516
0.000221904
0.000222285
0.00022266
0.000223028
0.00022339
0.000223744
0.000224091
0.000224429
0.000224759
0.00022508
0.000225386
0.000225653
0.00022588
0.000226071
0.000226229
0.000226361
0.000226471
0.000226564
0.000226645
0.000226718
0.000226785
0.000226846
0.000226902
0.00022695
0.000226988
0.000227013
0.000227021
0.00022701
0.000226974
0.000226914
0.000226825
0.000226697
0.000226534
0.000226341
0.000226125
0.000225896
0.000225665
0.000225448
0.000225259
0.000225117
0.000225036
0.000225028
0.000225096
0.000225234
0.000225437
0.000225699
0.000226002
0.000226355
0.000226772
0.000227261
0.000227826
0.000228467
0.000229157
0.000229947
0.000230743
0.000231781
0.000232576
0.000233868
0.000234722
0.000236625
0.000240088
0.000249771
0.000276517
0.000296361
0.000299028
0.000290537
0.000269258
0.000252765
0.000247698
0.000245479
0.000241889
0.000237394
0.000231284
0.000223794
0.000123348
0.000179528
0.000199192
0.000206804
0.000210408
0.000212373
0.000213534
0.000214242
0.000214689
0.000214988
0.000215211
0.000215396
0.000215562
0.000215726
0.000215893
0.000216066
0.000216246
0.000216434
0.000216631
0.000216837
0.000217053
0.00021728
0.00021752
0.000217772
0.000218039
0.00021832
0.000218617
0.000218932
0.000219264
0.000219614
0.000219982
0.000220369
0.000220774
0.000221192
0.000221605
0.000222012
0.000222412
0.000222806
0.000223193
0.000223573
0.000223947
0.000224313
0.000224671
0.000225021
0.000225361
0.000225692
0.000226012
0.00022631
0.000226571
0.000226798
0.000226993
0.000227161
0.000227305
0.00022743
0.000227539
0.000227636
0.000227721
0.000227796
0.000227861
0.000227914
0.000227953
0.000227977
0.000227982
0.000227965
0.000227927
0.000227866
0.000227774
0.00022765
0.000227491
0.000227301
0.000227088
0.000226861
0.00022663
0.000226409
0.000226212
0.000226055
0.000225951
0.000225913
0.000225944
0.000226041
0.000226201
0.00022642
0.000226686
0.000227005
0.000227386
0.000227833
0.000228346
0.00022892
0.000229542
0.000230257
0.000230969
0.000231901
0.000232554
0.000233671
0.000234371
0.000236156
0.000239607
0.000248989
0.000275342
0.00029241
0.000294576
0.000290075
0.000266354
0.000250617
0.000245023
0.000243047
0.000239908
0.00023632
0.000231036
0.000224014
0.000123244
0.000179655
0.000199389
0.000207047
0.000210686
0.000212674
0.000213841
0.000214543
0.000214978
0.000215265
0.000215477
0.000215655
0.000215822
0.000215988
0.000216158
0.000216336
0.000216521
0.000216716
0.00021692
0.000217135
0.000217361
0.0002176
0.000217851
0.000218117
0.000218397
0.000218693
0.000219007
0.000219337
0.000219686
0.000220054
0.000220441
0.000220847
0.000221271
0.000221704
0.000222131
0.000222552
0.000222966
0.000223373
0.000223774
0.000224169
0.000224555
0.000224935
0.000225305
0.000225668
0.00022602
0.000226362
0.000226693
0.000227012
0.00022731
0.000227574
0.000227807
0.000228011
0.000228191
0.000228348
0.000228486
0.000228607
0.000228713
0.000228804
0.000228881
0.000228942
0.000228985
0.000229011
0.000229015
0.000228997
0.00022896
0.000228895
0.000228803
0.000228681
0.000228528
0.000228345
0.000228135
0.000227908
0.000227674
0.000227446
0.000227237
0.000227061
0.000226932
0.00022686
0.000226851
0.000226905
0.000227019
0.000227193
0.000227421
0.000227702
0.000228041
0.000228441
0.000228901
0.000229416
0.000229978
0.00023062
0.000231246
0.000232054
0.000232574
0.000233488
0.000234114
0.000235827
0.000239527
0.000248816
0.000275516
0.000289478
0.000292062
0.00029021
0.000264297
0.00024959
0.00024315
0.000241078
0.000238139
0.000235224
0.00023069
0.000224181
0.000123128
0.00017979
0.000199598
0.000207299
0.000210978
0.000212991
0.000214162
0.000214854
0.000215274
0.000215549
0.000215755
0.000215931
0.000216098
0.000216266
0.00021644
0.000216622
0.000216814
0.000217017
0.00021723
0.000217454
0.000217691
0.000217942
0.000218206
0.000218486
0.000218782
0.000219095
0.000219425
0.000219775
0.000220143
0.000220531
0.000220939
0.000221367
0.000221813
0.00022226
0.000222702
0.000223138
0.000223567
0.000223989
0.000224405
0.000224815
0.000225216
0.00022561
0.000225995
0.000226372
0.000226738
0.000227093
0.000227437
0.000227767
0.000228085
0.000228386
0.000228658
0.000228901
0.000229116
0.000229308
0.000229476
0.000229624
0.000229753
0.000229863
0.000229955
0.000230027
0.000230079
0.000230109
0.000230116
0.000230102
0.000230064
0.000229999
0.000229906
0.000229785
0.000229638
0.000229462
0.00022926
0.000229035
0.000228798
0.000228561
0.000228338
0.000228141
0.000227984
0.000227876
0.000227825
0.000227833
0.0002279
0.000228027
0.000228212
0.000228452
0.000228748
0.000229102
0.000229513
0.000229978
0.00023049
0.000231065
0.000231604
0.000232276
0.000232677
0.000233379
0.000234024
0.000235678
0.000239721
0.000249182
0.000276682
0.000287243
0.000289867
0.000290636
0.000263752
0.000249604
0.000242172
0.000239888
0.0002369
0.00023431
0.00023034
0.000224358
0.000122999
0.000179935
0.00019982
0.000207562
0.000211284
0.000213321
0.000214494
0.000215174
0.000215582
0.000215847
0.000216046
0.00021622
0.000216388
0.000216559
0.000216738
0.000216926
0.000217126
0.000217336
0.000217559
0.000217794
0.000218043
0.000218307
0.000218586
0.000218881
0.000219194
0.000219525
0.000219875
0.000220245
0.000220635
0.000221046
0.000221478
0.00022193
0.000222397
0.000222861
0.000223318
0.00022377
0.000224215
0.000224654
0.000225086
0.000225512
0.00022593
0.00022634
0.000226741
0.000227133
0.000227515
0.000227885
0.000228242
0.000228587
0.000228916
0.00022923
0.000229527
0.000229806
0.000230062
0.000230289
0.000230491
0.000230668
0.000230823
0.000230956
0.000231067
0.000231156
0.000231221
0.000231262
0.000231278
0.000231271
0.000231236
0.000231172
0.00023108
0.000230961
0.000230815
0.000230645
0.000230451
0.000230234
0.000229999
0.000229754
0.000229515
0.000229297
0.000229111
0.000228967
0.000228874
0.000228834
0.000228851
0.000228928
0.000229065
0.000229262
0.000229516
0.000229825
0.000230193
0.000230616
0.000231088
0.000231611
0.000232074
0.000232625
0.000232915
0.000233436
0.000234126
0.000235818
0.000240199
0.000249963
0.000277424
0.000285674
0.000288808
0.000292126
0.000265456
0.000250106
0.000241813
0.000239167
0.000236084
0.000233534
0.000229948
0.00022455
0.000122857
0.000180087
0.000200053
0.000207839
0.000211601
0.000213664
0.00021484
0.000215509
0.0002159
0.000216155
0.00021635
0.000216523
0.000216693
0.000216868
0.000217053
0.000217248
0.000217455
0.000217675
0.000217908
0.000218155
0.000218417
0.000218696
0.00021899
0.000219303
0.000219634
0.000219985
0.000220357
0.000220749
0.000221164
0.0002216
0.000222059
0.00022254
0.000223025
0.000223505
0.000223979
0.000224448
0.00022491
0.000225367
0.000225817
0.00022626
0.000226696
0.000227124
0.000227543
0.000227952
0.000228351
0.000228737
0.00022911
0.00022947
0.000229813
0.00023014
0.000230449
0.000230738
0.000231008
0.000231256
0.000231482
0.000231685
0.000231864
0.00023202
0.000232153
0.000232265
0.00023236
0.000232427
0.000232468
0.000232476
0.000232454
0.000232401
0.000232316
0.000232201
0.000232058
0.000231891
0.000231701
0.000231492
0.000231264
0.000231021
0.000230771
0.000230531
0.000230316
0.000230137
0.00023
0.000229913
0.00022988
0.000229904
0.000229989
0.000230136
0.000230346
0.000230616
0.000230944
0.000231333
0.000231773
0.000232258
0.000232661
0.000233128
0.000233322
0.000233764
0.000234536
0.000236443
0.000241127
0.000251012
0.000277277
0.000284654
0.000288902
0.000294424
0.00026873
0.000251132
0.000241863
0.000238697
0.000235294
0.000232503
0.000229086
0.000224599
0.0001227
0.000180242
0.000200291
0.000208131
0.000211932
0.000214027
0.000215203
0.000215852
0.000216229
0.000216476
0.000216667
0.000216841
0.000217013
0.000217193
0.000217384
0.000217586
0.000217803
0.000218033
0.000218277
0.000218537
0.000218814
0.000219108
0.00021942
0.000219752
0.000220104
0.000220477
0.000220872
0.00022129
0.000221732
0.000222197
0.000222687
0.000223193
0.000223695
0.000224192
0.000224684
0.00022517
0.000225651
0.000226127
0.000226596
0.000227059
0.000227514
0.000227961
0.000228399
0.000228827
0.000229244
0.000229649
0.000230039
0.000230415
0.000230774
0.000231116
0.000231438
0.00023174
0.00023202
0.000232278
0.000232513
0.000232723
0.000232909
0.00023307
0.000233207
0.000233326
0.000233426
0.000233506
0.000233567
0.000233605
0.000233617
0.000233605
0.00023356
0.000233477
0.000233353
0.000233193
0.000233008
0.000232802
0.000232581
0.000232344
0.000232095
0.000231842
0.0002316
0.000231385
0.000231207
0.000231073
0.000230989
0.00023096
0.000230991
0.000231084
0.000231244
0.000231471
0.000231768
0.000232126
0.000232537
0.00023299
0.000233341
0.000233783
0.000233936
0.000234461
0.000235353
0.000237582
0.00024245
0.00025211
0.000276112
0.000283992
0.000290283
0.000297571
0.000272147
0.000252632
0.000242338
0.000238431
0.00023453
0.000231223
0.000227798
0.000223962
0.000122527
0.000180398
0.000200528
0.000208436
0.000212289
0.000214412
0.000215574
0.000216204
0.000216567
0.000216807
0.000216997
0.000217172
0.000217349
0.000217534
0.000217731
0.000217943
0.000218169
0.00021841
0.000218667
0.000218942
0.000219234
0.000219545
0.000219877
0.000220229
0.000220604
0.000221001
0.000221423
0.000221869
0.000222341
0.000222839
0.000223361
0.000223885
0.000224405
0.00022492
0.00022543
0.000225935
0.000226436
0.000226931
0.000227421
0.000227904
0.00022838
0.000228848
0.000229306
0.000229755
0.000230192
0.000230616
0.000231026
0.00023142
0.000231797
0.000232155
0.000232493
0.00023281
0.000233104
0.000233375
0.00023362
0.000233841
0.000234035
0.000234203
0.000234347
0.000234473
0.00023458
0.000234668
0.000234734
0.000234777
0.000234795
0.00023479
0.000234762
0.000234709
0.000234632
0.000234517
0.000234357
0.000234161
0.000233943
0.00023371
0.000233465
0.000233212
0.000232956
0.000232711
0.000232494
0.000232314
0.00023218
0.000232099
0.000232074
0.000232112
0.000232218
0.000232397
0.000232653
0.000232985
0.000233367
0.000233793
0.000234107
0.000234591
0.000234781
0.000235514
0.000236531
0.000239076
0.00024394
0.000253102
0.000273928
0.000282787
0.000292685
0.000301025
0.00027611
0.000254347
0.000243307
0.000238437
0.000234099
0.000230238
0.000226713
0.000223221
0.00012234
0.00018056
0.000200762
0.000208764
0.00021267
0.000214812
0.000215952
0.000216562
0.000216914
0.00021715
0.000217339
0.000217517
0.000217698
0.00021789
0.000218096
0.000218316
0.000218553
0.000218807
0.000219078
0.000219368
0.000219678
0.000220008
0.00022036
0.000220735
0.000221135
0.000221559
0.00022201
0.000222488
0.000222994
0.000223528
0.000224073
0.000224615
0.000225152
0.000225685
0.000226214
0.000226739
0.00022726
0.000227776
0.000228287
0.000228791
0.000229289
0.000229778
0.000230259
0.000230729
0.000231188
0.000231634
0.000232066
0.000232481
0.000232879
0.000233257
0.000233615
0.00023395
0.000234261
0.000234548
0.000234808
0.000235042
0.000235247
0.000235425
0.000235581
0.000235717
0.000235834
0.000235932
0.000236005
0.000236053
0.000236075
0.000236072
0.000236046
0.000235998
0.00023593
0.000235836
0.000235709
0.000235548
0.000235346
0.000235117
0.000234872
0.000234619
0.000234359
0.0002341
0.000233853
0.000233633
0.000233452
0.000233319
0.00023324
0.000233223
0.000233273
0.000233399
0.000233607
0.000233895
0.000234243
0.000234659
0.000234961
0.000235542
0.000235823
0.000236804
0.000237921
0.000240686
0.000245455
0.000254266
0.000272249
0.00028125
0.000296312
0.000305306
0.000280491
0.000256317
0.000244884
0.000238981
0.00023431
0.000229866
0.000226212
0.000222775
0.000122137
0.000180732
0.000200999
0.000209116
0.000213075
0.000215219
0.000216335
0.000216929
0.000217272
0.000217504
0.000217694
0.000217876
0.000218063
0.000218262
0.000218476
0.000218708
0.000218956
0.000219224
0.00021951
0.000219817
0.000220145
0.000220496
0.000220871
0.000221271
0.000221698
0.000222152
0.000222636
0.000223149
0.000223692
0.000224257
0.000224818
0.000225376
0.000225931
0.000226483
0.000227031
0.000227576
0.000228117
0.000228654
0.000229186
0.000229713
0.000230233
0.000230745
0.00023125
0.000231744
0.000232228
0.000232698
0.000233155
0.000233595
0.000234018
0.000234421
0.000234802
0.000235161
0.000235494
0.000235801
0.000236081
0.000236331
0.000236552
0.000236744
0.000236915
0.000237066
0.000237199
0.000237309
0.000237392
0.000237447
0.000237474
0.000237474
0.000237449
0.0002374
0.00023733
0.000237236
0.000237113
0.000236963
0.000236783
0.000236564
0.000236319
0.00023606
0.000235794
0.000235525
0.000235261
0.000235013
0.000234793
0.000234613
0.000234484
0.000234412
0.000234406
0.000234475
0.000234625
0.000234858
0.00023516
0.000235567
0.00023589
0.000236598
0.000236991
0.000238204
0.000239404
0.000242277
0.000246957
0.000255691
0.00027399
0.000280751
0.000304677
0.000311053
0.00028361
0.000257929
0.00024679
0.000240194
0.000235146
0.000230228
0.000226414
0.000222829
0.00012192
0.000180921
0.000201239
0.000209485
0.000213504
0.000215633
0.000216725
0.000217303
0.000217638
0.000217869
0.000218062
0.000218248
0.000218441
0.000218649
0.000218873
0.000219116
0.000219378
0.00021966
0.000219963
0.000220288
0.000220637
0.000221011
0.000221411
0.000221838
0.000222295
0.000222782
0.000223301
0.000223853
0.000224433
0.000225013
0.00022559
0.000226165
0.000226737
0.000227306
0.000227873
0.000228438
0.000228999
0.000229557
0.000230111
0.00023066
0.000231204
0.000231742
0.000232272
0.000232794
0.000233306
0.000233806
0.000234292
0.000234763
0.000235216
0.000235649
0.00023606
0.000236447
0.000236807
0.00023714
0.000237443
0.000237715
0.000237955
0.000238167
0.000238357
0.000238527
0.00023868
0.000238806
0.000238903
0.000238969
0.000239004
0.000239009
0.000238986
0.000238936
0.000238863
0.000238759
0.000238623
0.000238462
0.000238276
0.000238061
0.000237813
0.000237544
0.000237263
0.000236979
0.000236697
0.000236426
0.000236176
0.000235958
0.000235783
0.000235662
0.0002356
0.000235608
0.000235693
0.000235864
0.000236119
0.000236517
0.000236869
0.000237701
0.000238221
0.000239645
0.00024095
0.000243953
0.000248705
0.000257422
0.000279895
0.000282565
0.000316261
0.000319145
0.000287842
0.000259266
0.000248738
0.000242
0.000236483
0.000231198
0.000227107
0.000223263
0.000121688
0.000181127
0.000201507
0.000209864
0.000213945
0.000216052
0.000217121
0.000217685
0.000218015
0.000218245
0.000218441
0.000218633
0.000218834
0.000219051
0.000219286
0.000219541
0.000219817
0.000220115
0.000220437
0.000220782
0.000221154
0.000221552
0.000221979
0.000222437
0.000222926
0.00022345
0.000224009
0.0002246
0.000225197
0.00022579
0.000226382
0.000226972
0.000227559
0.000228146
0.000228731
0.000229314
0.000229895
0.000230475
0.000231051
0.000231625
0.000232195
0.000232761
0.000233322
0.000233876
0.000234422
0.000234958
0.00023548
0.000235988
0.000236477
0.000236947
0.000237393
0.000237814
0.000238208
0.000238572
0.000238904
0.000239202
0.000239466
0.000239702
0.000239916
0.000240113
0.000240289
0.000240436
0.000240551
0.000240631
0.000240678
0.00024069
0.000240671
0.000240621
0.000240543
0.000240423
0.000240267
0.00024008
0.000239869
0.000239633
0.00023937
0.000239082
0.000238778
0.000238468
0.00023816
0.00023786
0.000237579
0.000237325
0.000237108
0.000236939
0.000236825
0.000236773
0.000236793
0.000236902
0.000237112
0.000237501
0.000237888
0.000238808
0.000239458
0.000241085
0.000242575
0.000245837
0.000251003
0.000260162
0.000288821
0.00028876
0.000324793
0.000329115
0.000296462
0.000262107
0.000251101
0.000243403
0.000237982
0.000232278
0.000228033
0.000223883
0.00012144
0.000181352
0.000201816
0.000210255
0.000214392
0.000216477
0.000217524
0.000218075
0.0002184
0.000218631
0.000218831
0.00021903
0.00021924
0.000219467
0.000219714
0.000219983
0.000220275
0.00022059
0.000220931
0.000221299
0.000221694
0.00022212
0.000222577
0.000223068
0.000223593
0.000224156
0.000224757