/*--------------------------------*- C++ -*----------------------------------*\
| =========                 |                                                 |
| \\      /  F ield         | OpenFOAM: The Open Source CFD Toolbox           |
|  \\    /   O peration     | Version:  v2106                                 |
|   \\  /    A nd           | Website:  www.openfoam.com                      |
|    \\/     M anipulation  |                                                 |
\*---------------------------------------------------------------------------*/
FoamFile
{
    version     2.0;
    format      ascii;
    arch        "LSB;label=32;scalar=64";
    class       volScalarField;
    location    "1.5";
    object      nut;
}
// * * * * * * * * * * * * * * * * * * * * * * * * * * * * * * * * * * * * * //

dimensions      [0 2 -1 0 0 0 0];

internalField   nonuniform List<scalar> 
29678
(
6.73024e-06
0.000121215
0.000332503
0.000610043
0.000884316
0.00110731
0.00126399
0.00136179
0.00141698
0.00144549
0.00145913
0.00146524
0.00146785
0.00146894
0.00146939
0.00146958
0.00146966
0.0014697
0.00131044
0.00111654
0.000956659
0.000824956
0.000715439
0.000623605
0.000545998
0.000479941
0.000423315
0.0003744
0.000331794
0.000294364
0.000261178
0.00023145
0.0002045
0.000179729
0.000156601
0.000134638
0.000113466
9.28861e-05
7.2846e-05
5.33153e-05
3.66843e-05
1.79401e-05
1.81652e-05
1.85922e-05
6.06326e-05
9.85052e-05
0.000149312
0.000220102
0.000328081
0.00049687
0.000707038
0.000780796
0.000652794
0.000513074
0.000414494
0.000344625
0.0002916
0.000252982
0.000224086
0.000201761
0.000186294
0.000174868
0.000165339
0.000157905
0.000151461
0.000144749
0.00013945
0.000137235
0.000138306
0.000142764
0.000150751
0.00016735
2.42132e-05
2.55411e-05
2.5851e-05
2.59212e-05
2.65189e-05
2.83929e-05
0.000207926
0.000147009
0.000119807
0.000104666
9.56825e-05
9.07389e-05
8.97454e-05
9.13396e-05
0.00012689
0.000455724
0.000170099
0.000107265
0.000121209
0.000119247
7.13428e-05
7.86438e-05
8.07932e-05
0.000110369
0.000157408
3.28832e-05
2.47338e-05
3.37219e-05
3.4175e-05
6.71562e-05
8.71791e-05
6.34975e-05
6.95955e-05
4.76405e-05
4.33771e-05
3.74708e-05
5.53659e-05
7.4048e-06
6.74332e-06
0.000121324
0.000332849
0.000610619
0.000884996
0.00110796
0.00126453
0.00136221
0.00141731
0.00144574
0.00145932
0.00146537
0.00146791
0.00146893
0.00146932
0.00146946
0.00133888
0.00112693
0.000954262
0.000813983
0.000698936
0.00060381
0.000524538
0.000457957
0.000401591
0.00035355
0.000312321
0.000276667
0.000245599
0.000218313
0.000194154
0.000172573
0.000153116
0.000135401
0.00011914
0.000104184
9.05764e-05
7.8603e-05
6.8421e-05
5.87609e-05
4.55113e-05
3.15741e-05
3.06034e-05
4.54955e-05
7.35054e-05
0.000111582
0.00016094
0.000229091
0.000328696
0.000467038
0.000590465
0.000584112
0.000490001
0.000396725
0.000325877
0.000274152
0.000234683
0.000205884
0.000184055
0.00016737
0.000155563
0.000146407
0.000138898
0.000132894
0.000127498
0.000122506
0.000119217
0.000118597
0.000121253
0.000128435
0.000143376
0.000173451
0.000232504
0.000375955
0.000432589
0.000438664
0.000578192
0.000454701
0.000214234
0.000145973
0.000118065
0.000103561
9.4914e-05
9.01047e-05
8.96829e-05
9.82072e-05
0.0001501
0.000497583
0.000320653
0.00011731
0.000122108
0.000336945
0.000225368
0.000176469
0.000424291
0.000140261
0.000116114
9.28546e-05
2.11133e-05
4.30991e-05
4.26407e-05
0.000287739
6.13027e-05
6.86401e-05
5.5695e-05
4.62703e-05
3.96359e-05
3.3002e-05
3.84204e-05
4.61266e-05
6.74973e-06
0.000121473
0.000333327
0.000611431
0.000885973
0.00110891
0.00126534
0.00136287
0.00141784
0.00144618
0.00145966
0.00146561
0.00146805
0.00146898
0.00146929
0.00146936
0.00131851
0.00110075
0.000927369
0.000788959
0.000676573
0.000584282
0.000507728
0.00044362
0.000389457
0.000343339
0.000303789
0.000269617
0.00023987
0.000213784
0.000190741
0.00017023
0.000151836
0.000135206
0.000120071
0.000106223
9.34446e-05
8.13637e-05
6.94694e-05
5.83184e-05
5.03508e-05
5.07815e-05
5.87351e-05
6.77967e-05
8.13917e-05
0.000102814
0.000132751
0.000174286
0.00023521
0.0003329
0.000512175
0.000925676
0.00124766
0.000873536
0.000563908
0.00041803
0.000334676
0.000281
0.000243814
0.000216719
0.000196735
0.000181654
0.000169842
0.000160475
0.000152825
0.00014638
0.000141317
0.00013824
0.000137794
0.000141055
0.000150292
0.000171241
0.000223478
0.000316609
0.000378606
0.000370898
0.000328458
0.000255037
0.000194229
0.000161192
0.000141805
0.00012968
0.000122245
0.00011838
0.000117845
0.000121674
0.000135134
0.00019344
0.000189062
0.000155082
0.000159292
0.000196629
0.000199327
0.000191894
0.000222444
0.000130396
0.000113296
9.93006e-05
0.000134111
4.60742e-05
0.000114061
0.000194151
5.83276e-05
6.13233e-05
5.33614e-05
4.56374e-05
4.06688e-05
3.87526e-05
4.9533e-05
5.15872e-05
6.75598e-06
0.000121646
0.000333883
0.00061238
0.000887113
0.00111
0.00126627
0.00136364
0.00141849
0.00144672
0.00146009
0.00146591
0.00146825
0.00146908
0.00146932
0.00146933
0.00133794
0.00111294
0.000935752
0.00079481
0.000680747
0.000587247
0.000509831
0.000445133
0.000390592
0.000344265
0.000304635
0.000270497
0.000240882
0.000215016
0.000192273
0.000172147
0.000154227
0.000138177
0.000123735
0.000110716
9.89905e-05
8.85152e-05
7.94816e-05
7.22655e-05
6.60831e-05
5.97155e-05
5.86062e-05
6.63534e-05
8.17004e-05
0.00010442
0.000136328
0.000182562
0.000254635
0.000382143
0.000670397
0.00126081
0.00126672
0.000788521
0.000518195
0.000386256
0.000310103
0.000260968
0.00022703
0.000202568
0.000184575
0.000171039
0.000160676
0.000152728
0.000146676
0.000142354
0.00014
0.000140082
0.0001432
0.000150253
0.000162895
0.000184811
0.000220501
0.000262425
0.000286113
0.000280738
0.000260186
0.000225998
0.000187203
0.000157286
0.000137628
0.000125094
0.00011771
0.000114601
0.000115976
0.000123435
0.000141233
0.000175461
0.000175719
0.000153481
0.000150759
0.000169461
0.000176414
0.000174224
0.000190218
0.000146605
0.000118178
0.000147932
0.000217199
0.000173219
0.000105559
0.000101284
5.61239e-05
5.8157e-05
5.67147e-05
5.10783e-05
4.87628e-05
4.64004e-05
4.91007e-05
4.17372e-05
6.76189e-06
0.000121835
0.000334489
0.000613412
0.000888329
0.00111114
0.00126723
0.00136448
0.00141923
0.00144734
0.00146054
0.00146622
0.00146843
0.00146918
0.00146935
0.00146933
0.0013237
0.00110191
0.000926591
0.000786844
0.00067371
0.000581018
0.000504357
0.000440412
0.000386637
0.000341064
0.00030216
0.000268728
0.000239809
0.000214628
0.000192569
0.000173142
0.000155953
0.000140688
0.000127101
0.00011503
0.000104375
9.5113e-05
8.73264e-05
8.11922e-05
7.72791e-05
7.73461e-05
8.32572e-05
9.59264e-05
0.000115202
0.000142195
0.000180029
0.000235049
0.000320794
0.000469416
0.00077065
0.00128292
0.00107073
0.00066931
0.000474266
0.000369339
0.000304957
0.000261785
0.000231182
0.000208708
0.000191868
0.000179096
0.00016936
0.000161961
0.000156498
0.000152778
0.000150852
0.000150983
0.000153637
0.00015963
0.000169646
0.000185092
0.000206503
0.000228813
0.000240942
0.000238763
0.000228408
0.000211983
0.000191491
0.000172666
0.000158279
0.000148322
0.000142126
0.000139371
0.000140206
0.000145252
0.00015541
0.000168885
0.000170309
0.000164062
0.000164964
0.000173576
0.000178942
0.000181859
0.000184795
0.000146298
0.000115488
0.000124934
0.000291427
6.66363e-05
0.000121707
5.88172e-05
6.12181e-05
4.80216e-05
6.13063e-05
5.19686e-05
5.37599e-05
5.26068e-05
5.56358e-05
4.56888e-05
6.76764e-06
0.000122035
0.000335133
0.000614494
0.00088955
0.00111223
0.0012682
0.00136541
0.00142009
0.00144803
0.001461
0.00146648
0.00146855
0.00146921
0.00146934
0.00146927
0.00127549
0.00106684
0.000900022
0.000765759
0.000656567
0.000566942
0.000492779
0.000430991
0.000379116
0.000335184
0.000297687
0.00026547
0.000237619
0.0002134
0.000192233
0.000173657
0.000157308
0.000142896
0.000130197
0.000119066
0.000109423
0.000101255
9.46323e-05
8.97165e-05
8.67776e-05
8.63639e-05
8.93571e-05
9.66639e-05
0.000108861
0.000126621
0.000151226
0.000184945
0.000231647
0.00029691
0.000384627
0.000480366
0.000522658
0.000478902
0.00040457
0.000340019
0.000291273
0.000255027
0.000227779
0.00020701
0.000191016
0.000178616
0.000169
0.000161611
0.000156156
0.000152479
0.000150593
0.000150649
0.000152944
0.000157726
0.000165649
0.000176903
0.000190178
0.000202063
0.000207771
0.000205521
0.000197563
0.000185697
0.000171457
0.000157499
0.00014582
0.000137054
0.000131283
0.000128407
0.000128374
0.000131125
0.000136527
0.000142799
0.00014548
0.000145516
0.000146226
0.000149127
0.000151202
0.000152856
0.000152169
0.000137508
0.000108496
0.000105665
0.00010908
3.6466e-05
0.000103781
3.94186e-05
8.47703e-05
4.02875e-05
7.13108e-05
5.62036e-05
6.33947e-05
6.25416e-05
6.28538e-05
4.80063e-05
6.77347e-06
0.000122245
0.000335808
0.000615593
0.000890695
0.00111322
0.00126921
0.00136654
0.00142116
0.00144881
0.00146146
0.00146668
0.00146859
0.00146916
0.00146923
0.00144456
0.00120734
0.00101583
0.00086088
0.000734795
0.000631909
0.000547436
0.000477424
0.000418959
0.000369747
0.000327962
0.000292221
0.000261449
0.000234811
0.000211651
0.000191443
0.000173762
0.000158273
0.00014471
0.000132867
0.000122614
0.000113879
0.000106655
0.000101008
9.70959e-05
9.52082e-05
9.58733e-05
9.99943e-05
0.000108391
0.000121581
0.000140223
0.000165424
0.000198801
0.000242098
0.000295294
0.000351383
0.000391724
0.000398233
0.000372498
0.000332405
0.000293237
0.000260318
0.00023392
0.000213007
0.000196473
0.000183416
0.000173152
0.000165159
0.000159087
0.000154724
0.000151959
0.000150785
0.000151281
0.000153454
0.000157534
0.00016365
0.000171286
0.000179505
0.000186421
0.000189928
0.000189309
0.000185401
0.000179062
0.000171069
0.000162676
0.000155129
0.000149164
0.000145046
0.000142865
0.000142617
0.000144119
0.000147046
0.000149918
0.000151179
0.000150989
0.000150622
0.000150971
0.000151101
0.000150592
0.000147296
0.000136526
0.000105785
9.64817e-05
5.00089e-05
3.76071e-05
8.58334e-05
3.95194e-05
5.92085e-05
4.12352e-05
7.72835e-05
6.78813e-05
7.57464e-05
7.52227e-05
7.34791e-05
5.34988e-05
6.77965e-06
0.000122465
0.000336507
0.000616664
0.000891669
0.00111408
0.00127039
0.00136802
0.00142249
0.0014497
0.0014619
0.00146681
0.00146854
0.001469
0.00146901
0.0013374
0.0011263
0.000952683
0.000811817
0.000696886
0.000602705
0.000525004
0.000460191
0.000405619
0.000359328
0.000319819
0.000285917
0.000256665
0.000231311
0.000209269
0.000190059
0.000173295
0.000158666
0.00014593
0.000134895
0.000125441
0.000117501
0.000111065
0.00010619
0.00010301
0.000101754
0.000102784
0.000106586
0.000113619
0.00012426
0.000138884
0.000157894
0.000181653
0.000210073
0.000241646
0.000272178
0.000295028
0.000304112
0.000297782
0.000280437
0.000258822
0.000237577
0.000218699
0.000202681
0.000189401
0.000178551
0.000169801
0.000162841
0.000157483
0.000153578
0.000151038
0.000149913
0.000150082
0.000151572
0.000154503
0.000158695
0.000163788
0.000169033
0.000173235
0.000175278
0.000174716
0.000171798
0.00016699
0.000160898
0.000154367
0.000148246
0.000143106
0.000139215
0.000136718
0.000135616
0.000135743
0.000136801
0.00013814
0.000138955
0.000138929
0.000139075
0.000138627
0.000138434
0.000137074
0.000133969
0.000129645
0.000102721
8.97042e-05
3.16664e-05
7.50315e-05
6.56198e-05
7.45455e-05
3.80768e-05
6.86602e-05
8.16415e-05
9.93393e-05
9.77474e-05
9.27869e-05
8.64928e-05
5.96377e-05
6.78645e-06
0.000122693
0.000337219
0.000617646
0.000892378
0.0011149
0.00127195
0.00136998
0.00142412
0.00145066
0.00146229
0.00146683
0.00146836
0.00146872
0.00143864
0.00122025
0.00103423
0.00088181
0.00075814
0.000656665
0.000572241
0.000501466
0.000441756
0.000391056
0.000347756
0.000310618
0.000278641
0.000250992
0.000227003
0.000206138
0.000187966
0.000172133
0.000158357
0.000146415
0.000136131
0.00012739
0.000120129
0.00011433
0.000110035
0.000107339
0.000106408
0.000107478
0.00011084
0.000116777
0.000125522
0.000137261
0.000152087
0.000169875
0.000189997
0.000210909
0.000229934
0.000243829
0.000250093
0.000248077
0.000239389
0.000226951
0.000213407
0.000200401
0.000188714
0.000178614
0.000170112
0.000163109
0.000157472
0.000153117
0.000149958
0.000147979
0.000146998
0.000147123
0.000148488
0.000150838
0.000153919
0.000157448
0.000160888
0.000163554
0.000164849
0.000164508
0.000162611
0.000159435
0.000155405
0.000151054
0.000146896
0.000143299
0.000140452
0.000138463
0.000137325
0.000136898
0.000136936
0.000137166
0.000136974
0.000135864
0.000135342
0.000133309
0.000132354
0.00012952
0.000125946
0.000125156
9.98613e-05
8.90835e-05
2.23407e-05
6.75516e-05
5.86743e-05
7.09913e-05
3.99278e-05
0.000240518
0.000117357
0.000174198
0.000131872
0.000113174
0.000100364
6.61092e-05
6.79417e-06
0.000122931
0.000337933
0.000618464
0.000892785
0.00111587
0.00127412
0.00137251
0.001426
0.00145163
0.00146258
0.00146672
0.00146804
0.00146825
0.00128568
0.0010965
0.000940062
0.000812317
0.000705882
0.00061651
0.00054093
0.000476692
0.000421954
0.000375153
0.000334972
0.000300346
0.000270415
0.000244459
0.000221895
0.000202249
0.000185132
0.000170227
0.000157281
0.000146091
0.000136494
0.000128381
0.000121688
0.000116389
0.000112503
0.000110092
0.000109259
0.000110148
0.000112922
0.000117733
0.000124687
0.000133818
0.000145028
0.000158003
0.000172085
0.000186145
0.000198626
0.000207885
0.000212696
0.000212684
0.000208476
0.000201409
0.000192939
0.000184204
0.00017592
0.000168467
0.000162012
0.000156571
0.000152146
0.000148712
0.000146254
0.000144669
0.000143919
0.000144105
0.000145076
0.000146712
0.000148903
0.000151381
0.000153753
0.000155587
0.00015652
0.000156368
0.000155138
0.00015299
0.000150199
0.000147114
0.000144065
0.000141298
0.000138954
0.000137119
0.000135797
0.000134902
0.000134266
0.000133755
0.000133017
0.000131215
0.000130301
0.000127305
0.000126018
0.000122192
0.000118442
0.000119414
9.63162e-05
9.10576e-05
2.26668e-05
2.2838e-05
9.39537e-05
3.67004e-05
9.83744e-05
9.18783e-05
0.000288895
0.000262439
0.000163497
0.000128768
0.00011143
7.16387e-05
6.80313e-06
0.000123177
0.000338629
0.000619036
0.000892973
0.00111724
0.00127707
0.00137557
0.00142803
0.00145254
0.00146272
0.00146643
0.0014675
0.00131018
0.00113362
0.000982318
0.000854684
0.000746884
0.000654725
0.000575956
0.000508572
0.000450759
0.000401069
0.000358255
0.000321262
0.000289207
0.000261373
0.00023715
0.000216035
0.000197617
0.000181554
0.000167563
0.000155418
0.000144933
0.000135959
0.000128393
0.000122169
0.000117252
0.000113641
0.000111365
0.000110479
0.000111058
0.000113181
0.00011691
0.000122264
0.000129188
0.000137518
0.000146918
0.000156848
0.000166543
0.000175076
0.000181544
0.000185287
0.000186071
0.000184156
0.000180191
0.000174976
0.000169242
0.000163533
0.000158208
0.000153473
0.000149382
0.000146033
0.000143444
0.000141597
0.000140379
0.000139954
0.000140172
0.000140954
0.000142243
0.000143908
0.000145742
0.000147487
0.000148863
0.000149633
0.000149657
0.000148912
0.000147489
0.00014557
0.000143385
0.000141147
0.000139016
0.000137086
0.000135416
0.000134011
0.000132815
0.000131731
0.000130578
0.000129504
0.000127057
0.00012565
0.000121945
0.000120303
0.000115677
0.000111875
0.000113386
9.21344e-05
9.85296e-05
3.95976e-05
1.79792e-05
9.66792e-05
3.52277e-05
0.000101026
9.03202e-05
0.000259278
0.000193072
0.000164643
0.00013176
0.000116903
7.55121e-05
6.81371e-06
0.00012343
0.000339286
0.000619276
0.00089314
0.0011193
0.00128085
0.00137904
0.00143007
0.00145328
0.00146264
0.00146588
0.00129563
0.00114115
0.0010035
0.000881927
0.000775863
0.000684017
0.000604428
0.000535637
0.000476074
0.000424444
0.000379655
0.00034075
0.000306894
0.000277392
0.000251647
0.000229151
0.000209482
0.000192283
0.000177257
0.000164155
0.000152777
0.000142951
0.000134541
0.000127452
0.000121615
0.000116987
0.000113551
0.000111308
0.000110278
0.000110488
0.000111963
0.000114707
0.000118688
0.000123813
0.000129908
0.000136687
0.000143739
0.000150553
0.00015656
0.00016123
0.00016418
0.000165256
0.000164566
0.000162441
0.000159328
0.000155683
0.000151892
0.00014824
0.000144899
0.000141976
0.000139578
0.000137782
0.00013645
0.000135748
0.000135593
0.000135906
0.000136635
0.000137726
0.00013907
0.00014052
0.000141905
0.000143041
0.000143767
0.000143972
0.00014362
0.000142756
0.000141493
0.000139978
0.000138347
0.000136701
0.000135101
0.000133585
0.000132154
0.000130771
0.000129384
0.000127796
0.000126453
0.000123542
0.000121692
0.000117499
0.000115326
0.000110106
0.000106264
0.000107412
8.69527e-05
0.000100857
6.69852e-05
2.52565e-05
0.000116764
5.57556e-05
8.25342e-05
9.99471e-05
0.000170291
0.000140589
0.00014805
0.0001243
0.000116714
7.75311e-05
6.82631e-06
0.000123691
0.000339889
0.000619117
0.000893473
0.00112227
0.00128541
0.00138275
0.00143201
0.00145378
0.00139268
0.00125204
0.0011215
0.00100098
0.000890826
0.000791117
0.000702667
0.000624772
0.000556494
0.000496641
0.000444216
0.000398315
0.000358124
0.000322942
0.000292111
0.000265084
0.000241378
0.000220575
0.000202322
0.000186312
0.000172293
0.000160048
0.000149398
0.000140188
0.000132291
0.000125619
0.000120104
0.000115697
0.000112366
0.000110096
0.000108879
0.000108711
0.000109583
0.000111467
0.000114305
0.000117996
0.000122381
0.000127236
0.000132265
0.000137118
0.000141434
0.000144889
0.000147245
0.000148396
0.000148386
0.000147385
0.00014565
0.000143462
0.000141082
0.000138725
0.000136496
0.000134544
0.000132997
0.000131795
0.000131031
0.000130743
0.000130844
0.000131319
0.00013212
0.000133175
0.00013439
0.000135661
0.000136876
0.000137915
0.000138671
0.000139058
0.000139037
0.000138621
0.000137872
0.000136877
0.000135717
0.000134451
0.00013312
0.000131742
0.000130318
0.000128821
0.000127223
0.000125338
0.000123754
0.000120579
0.000118316
0.000113925
0.000111047
0.000105615
0.000101344
0.000101685
8.20021e-05
9.51154e-05
7.91737e-05
3.13721e-05
6.78942e-05
5.82928e-05
0.000115526
9.00752e-05
0.000138411
0.000112729
0.000130034
0.000112997
0.000112693
7.78803e-05
6.8414e-06
0.000123961
0.000340444
0.000618602
0.000894056
0.00112615
0.00129061
0.00138653
0.00140839
0.00129807
0.00118791
0.00108056
0.000978364
0.000881421
0.000791658
0.000710013
0.000636348
0.000570275
0.000511568
0.0004595
0.000413471
0.000372765
0.000336821
0.000305116
0.000277142
0.000252471
0.00023072
0.000211546
0.000194657
0.000179794
0.000166742
0.000155314
0.000145352
0.000136712
0.000129283
0.000122982
0.00011774
0.000113505
0.000110238
0.00010791
0.000106496
0.000105973
0.000106313
0.00010747
0.00010938
0.000111946
0.000115034
0.000118473
0.000122051
0.000125538
0.000128689
0.000131295
0.000133205
0.000134342
0.000134719
0.000134425
0.000133608
0.000132444
0.000131104
0.000129742
0.000128378
0.000127229
0.000126367
0.00012572
0.000125472
0.000125532
0.000125913
0.000126588
0.000127519
0.000128639
0.000129869
0.00013112
0.000132308
0.000133356
0.000134194
0.000134764
0.000135029
0.000134984
0.000134655
0.000134085
0.000133311
0.000132366
0.000131269
0.000130029
0.00012864
0.00012708
0.000125334
0.000123231
0.000121419
0.000118074
0.000115435
0.000111087
0.000107452
0.000102437
9.69983e-05
9.65733e-05
7.80959e-05
8.63084e-05
6.25714e-05
3.21773e-05
3.83545e-05
5.74818e-05
0.000154021
7.56143e-05
0.000119895
9.43561e-05
0.00011461
0.00010173
0.000106634
7.68949e-05
6.85955e-06
0.000124241
0.000340961
0.000617921
0.000894918
0.00113076
0.00129627
0.00126657
0.0011917
0.00110994
0.00102529
0.000940608
0.000858142
0.00077964
0.000706162
0.000638372
0.000576535
0.000520545
0.000469912
0.000424575
0.000384162
0.000348109
0.000316023
0.000287511
0.000262188
0.000239724
0.000219818
0.000202191
0.000186599
0.00017283
0.000160696
0.000150042
0.000140724
0.000132613
0.000125612
0.000119643
0.00011464
0.000110548
0.000107322
0.000104927
0.000103328
0.000102492
0.000102379
0.00010294
0.00010411
0.000105803
0.000107913
0.000110308
0.000112839
0.000115344
0.000117667
0.000119669
0.000121245
0.000122336
0.00012294
0.000123105
0.000122915
0.00012248
0.000121911
0.000121266
0.000120606
0.000120146
0.000119787
0.00011969
0.000119846
0.000120254
0.000120914
0.000121807
0.000122904
0.000124154
0.000125487
0.000126828
0.000128105
0.000129254
0.000130228
0.000130989
0.000131512
0.000131786
0.000131813
0.000131605
0.00013117
0.000130514
0.000129641
0.000128549
0.000127224
0.000125646
0.0001238
0.000121537
0.000119485
0.000115998
0.000112981
0.000108757
0.000104725
0.00010057
9.36542e-05
9.25447e-05
7.56396e-05
7.69596e-05
4.49912e-05
2.70976e-05
2.62375e-05
5.84304e-05
0.000123955
5.9854e-05
0.000107129
7.99567e-05
0.00010219
9.17406e-05
9.98563e-05
7.51551e-05
6.88138e-06
0.000124527
0.000341384
0.000617283
0.000896195
0.00113624
0.00112623
0.00107996
0.00102361
0.000959869
0.000892426
0.000824166
0.000757172
0.000692826
0.000632003
0.00057527
0.000522934
0.000475178
0.000431611
0.000392053
0.000356468
0.000324559
0.000295928
0.000270312
0.000247422
0.000226998
0.000208813
0.000192632
0.000178264
0.000165523
0.000154257
0.00014433
0.000135611
0.000127992
0.000121386
0.000115718
0.000110928
0.00010696
0.000103768
0.000101312
9.95528e-05
9.84518e-05
9.79665e-05
9.80479e-05
9.86368e-05
9.9661e-05
0.000101035
0.000102661
0.000104431
0.000106232
0.000107958
0.000109514
0.000110828
0.000111859
0.000112598
0.000113067
0.000113315
0.000113407
0.000113418
0.00011331
0.000113232
0.000113252
0.000113365
0.00011372
0.000114249
0.000114985
0.000115923
0.000117048
0.000118337
0.000119751
0.000121238
0.000122736
0.00012418
0.00012551
0.000126679
0.00012766
0.000128435
0.000128995
0.000129337
0.00012945
0.000129325
0.000128948
0.000128303
0.000127377
0.000126153
0.000124607
0.000122716
0.000120363
0.000118064
0.00011449
0.000111204
0.000107059
0.000103168
9.94182e-05
9.15492e-05
9.00239e-05
7.46835e-05
6.78675e-05
3.12774e-05
1.96156e-05
1.94289e-05
5.29275e-05
0.000113188
4.61816e-05
9.36473e-05
6.87959e-05
9.21814e-05
8.35071e-05
9.33323e-05
7.32832e-05
6.90746e-06
0.000124807
0.000341595
0.000616882
0.000898443
0.000994503
0.00096795
0.00093318
0.000887856
0.000836624
0.000782072
0.00072647
0.000671474
0.000618206
0.000567414
0.000519603
0.000475075
0.000433991
0.000396396
0.000361943
0.000330565
0.00030222
0.000276662
0.000253662
0.000232979
0.000214426
0.000197826
0.000182987
0.000169758
0.000157977
0.000147523
0.000138274
0.000130112
0.00012295
0.000116708
0.000111319
0.000106724
0.000102871
9.97138e-05
9.72104e-05
9.53211e-05
9.40061e-05
9.32236e-05
9.2928e-05
9.30673e-05
9.35822e-05
9.44058e-05
9.54649e-05
9.6681e-05
9.79752e-05
9.92726e-05
0.000100508
0.000101629
0.000102606
0.000103427
0.0001041
0.000104654
0.000105128
0.00010557
0.00010582
0.00010619
0.000106566
0.000107113
0.000107824
0.000108703
0.000109754
0.000110975
0.000112351
0.000113859
0.000115467
0.000117139
0.00011883
0.000120484
0.000122045
0.000123464
0.000124706
0.000125753
0.000126598
0.000127232
0.000127644
0.000127812
0.00012771
0.000127308
0.000126579
0.000125495
0.000124032
0.000122165
0.000119801
0.000117351
0.000113723
0.000110447
0.000106215
0.000102603
9.84797e-05
9.08023e-05
8.93527e-05
7.52267e-05
5.99616e-05
2.16661e-05
1.39889e-05
2.14299e-05
3.74334e-05
0.000136937
3.72707e-05
7.55086e-05
6.1542e-05
8.36358e-05
7.7579e-05
8.79027e-05
7.17518e-05
6.93837e-06
0.000125076
0.000341488
0.000616795
0.000883317
0.000861681
0.000842204
0.000812742
0.000775772
0.000734042
0.000689459
0.000643744
0.000598188
0.000553715
0.00051097
0.000470405
0.000432311
0.000396851
0.000364117
0.00033405
0.000306446
0.000281198
0.00025833
0.000237658
0.000218971
0.000202121
0.000186962
0.000173359
0.000161179
0.000150292
0.000140591
0.000131966
0.000124323
0.000117586
0.000111682
0.000106552
0.000102141
9.83995e-05
9.52825e-05
9.27498e-05
9.07621e-05
8.92813e-05
8.82682e-05
8.76819e-05
8.74786e-05
8.761e-05
8.80245e-05
8.86676e-05
8.94825e-05
9.0413e-05
9.14061e-05
9.24154e-05
9.34035e-05
9.43454e-05
9.52295e-05
9.60576e-05
9.68439e-05
9.76118e-05
9.83053e-05
9.88787e-05
9.95445e-05
0.00010026
0.000101137
0.000102139
0.000103298
0.000104617
0.000106092
0.000107714
0.000109462
0.000111302
0.000113196
0.000115107
0.000116996
0.000118817
0.00012052
0.000122062
0.000123415
0.000124564
0.000125499
0.000126207
0.000126665
0.000126841
0.000126699
0.000126198
0.000125301
0.000123975
0.000122194
0.000119888
0.00011742
0.000113738
0.000110698
0.000106091
0.00010264
9.7961e-05
9.11821e-05
9.06868e-05
7.76282e-05
5.80583e-05
1.45944e-05
1.94139e-05
2.26565e-05
4.7307e-05
4.39517e-05
3.80714e-05
5.73089e-05
6.02441e-05
7.64125e-05
7.49209e-05
8.42605e-05
7.13153e-05
6.97481e-06
0.000125341
0.000341078
0.000617381
0.000769602
0.000754921
0.000738531
0.000712958
0.000682404
0.000647987
0.000611163
0.000573215
0.000535149
0.000497722
0.000461487
0.000426845
0.000394071
0.000363337
0.000334726
0.000308292
0.000283954
0.000261537
0.000241013
0.000222374
0.000205481
0.000190161
0.000176313
0.000163839
0.000152622
0.000142557
0.000133545
0.000125496
0.000118334
0.000111991
0.000106403
0.000101516
9.72806e-05
9.36501e-05
9.05823e-05
8.8039e-05
8.59834e-05
8.438e-05
8.31935e-05
8.23884e-05
8.19282e-05
8.17749e-05
8.18892e-05
8.22309e-05
8.27593e-05
8.34343e-05
8.42183e-05
8.50773e-05
8.59832e-05
8.69154e-05
8.78623e-05
8.8821e-05
8.97977e-05
9.08057e-05
9.16525e-05
9.24772e-05
9.3335e-05
9.43272e-05
9.54527e-05
9.67089e-05
9.81126e-05
9.96684e-05
0.000101373
0.000103217
0.000105186
0.000107255
0.000109391
0.000111556
0.000113706
0.000115802
0.000117805
0.000119673
0.000121367
0.000122858
0.000124125
0.000125152
0.000125917
0.000126387
0.000126523
0.00012628
0.000125613
0.000124479
0.00012284
0.000120632
0.000118212
0.000114434
0.000111642
0.000106478
0.000102965
9.80604e-05
9.20432e-05
9.32923e-05
8.1783e-05
6.32452e-05
1.47626e-05
4.32699e-05
2.32427e-05
6.39429e-05
2.90407e-05
6.0527e-05
4.44179e-05
6.70708e-05
7.04393e-05
7.55663e-05
8.22568e-05
7.22098e-05
7.01761e-06
0.000125614
0.000340445
0.000618784
0.000676858
0.000666302
0.000651624
0.000629661
0.000604019
0.000575282
0.000544537
0.000512734
0.000480655
0.000448914
0.000417981
0.000388209
0.000359853
0.000333083
0.000307999
0.000284641
0.000263037
0.000243136
0.000224743
0.000207891
0.000192554
0.000178612
0.000165956
0.000154505
0.000144166
0.000134848
0.000126464
0.000118946
0.000112228
0.000106251
0.000100957
9.63005e-05
9.22344e-05
8.87159e-05
8.57065e-05
8.31705e-05
8.10742e-05
7.93859e-05
7.8074e-05
7.71087e-05
7.64606e-05
7.61005e-05
7.59996e-05
7.61292e-05
7.64607e-05
7.69661e-05
7.76181e-05
7.83914e-05
7.92634e-05
8.02162e-05
8.12375e-05
8.23214e-05
8.34687e-05
8.46865e-05
8.55777e-05
8.65781e-05
8.76131e-05
8.87989e-05
9.01148e-05
9.15735e-05
9.31805e-05
9.49412e-05
9.68514e-05
9.89054e-05
0.000101089
0.00010338
0.00010575
0.000108169
0.000110599
0.000112993
0.000115312
0.000117518
0.000119573
0.000121438
0.00012308
0.000124471
0.000125583
0.000126382
0.000126829
0.000126877
0.000126477
0.00012558
0.000124129
0.000122047
0.000119673
0.000115754
0.000113066
0.000107309
0.000103429
9.85277e-05
9.24253e-05
9.49444e-05
8.38618e-05
7.61466e-05
1.87859e-05
4.38713e-05
2.91769e-05
8.06409e-05
2.90078e-05
0.000162986
3.93711e-05
9.09685e-05
6.59376e-05
8.08844e-05
8.24132e-05
7.50572e-05
7.06766e-06
0.000125902
0.000339601
0.000602481
0.000599648
0.000592046
0.00057841
0.000559523
0.000537727
0.000513453
0.000487512
0.000460609
0.000433345
0.00040622
0.000379629
0.000353882
0.000329209
0.000305776
0.000283686
0.000262998
0.000243729
0.000225909
0.000209447
0.000194231
0.000180262
0.000167531
0.000155943
0.000145422
0.000135877
0.00012723
0.000119418
0.000112387
0.000106078
0.000100441
9.54237e-05
9.09841e-05
8.70818e-05
8.36769e-05
8.07344e-05
7.82218e-05
7.61087e-05
7.43672e-05
7.29698e-05
7.18924e-05
7.11122e-05
7.06081e-05
7.03605e-05
7.03506e-05
7.05595e-05
7.09679e-05
7.1556e-05
7.23035e-05
7.31907e-05
7.42004e-05
7.53186e-05
7.65369e-05
7.78522e-05
7.91625e-05
8.01265e-05
8.11802e-05
8.2358e-05
8.36921e-05
8.51555e-05
8.67719e-05
8.85451e-05
9.04763e-05
9.25657e-05
9.48074e-05
9.71928e-05
9.9698e-05
0.000102299
0.00010497
0.000107678
0.00011038
0.000113032
0.000115594
0.000118025
0.000120287
0.000122337
0.000124139
0.000125652
0.000126837
0.000127647
0.000128034
0.000127945
0.000127326
0.000126106
0.000124182
0.000121853
0.000117798
0.000114955
0.000108761
0.000104088
9.89805e-05
9.16716e-05
9.33834e-05
7.99011e-05
9.16312e-05
2.78404e-05
2.83729e-05
3.93585e-05
6.72844e-05
4.05326e-05
9.17049e-05
4.2191e-05
0.000114383
6.38099e-05
9.12946e-05
8.43385e-05
8.02975e-05
7.12595e-06
0.000126209
0.000338849
0.000534027
0.000534217
0.000528812
0.000516307
0.000499988
0.000481275
0.000460557
0.00043845
0.00041548
0.000392115
0.000368758
0.000345741
0.000323334
0.000301743
0.000281124
0.000261581
0.000243181
0.000225957
0.000209914
0.000195071
0.000181337
0.000168638
0.000156972
0.000146328
0.000136632
0.000127798
0.000119758
0.000112468
0.000105883
9.99502e-05
9.46272e-05
8.98688e-05
8.56349e-05
8.18914e-05
7.86015e-05
7.57336e-05
7.32585e-05
7.11489e-05
6.93808e-05
6.79314e-05
6.67818e-05
6.59159e-05
6.53206e-05
6.49849e-05
6.48989e-05
6.50518e-05
6.54308e-05
6.60207e-05
6.68035e-05
6.77597e-05
6.88697e-05
7.01169e-05
7.14893e-05
7.29813e-05
7.42565e-05
7.52784e-05
7.63685e-05
7.76362e-05
7.90558e-05
8.06274e-05
8.23558e-05
8.42502e-05
8.63151e-05
8.85528e-05
9.0959e-05
9.35245e-05
9.62288e-05
9.90525e-05
0.000101971
0.000104954
0.000107964
0.000110957
0.000113889
0.000116718
0.000119401
0.000121893
0.000124147
0.000126114
0.000127748
0.000128991
0.000129787
0.000130071
0.000129785
0.000128851
0.00012714
0.000124888
0.000120781
0.000117514
0.000111159
0.000105259
9.95197e-05
9.03441e-05
8.89344e-05
7.34368e-05
9.64208e-05
5.08194e-05
2.17253e-05
4.65429e-05
5.22327e-05
7.18578e-05
6.34249e-05
4.99257e-05
0.000101096
6.66787e-05
0.000104776
8.85475e-05
8.89409e-05
7.19368e-06
0.000126532
0.000338337
0.000477606
0.000478248
0.000474388
0.000463199
0.000449062
0.000432889
0.000415049
0.000396034
0.000376248
0.000356059
0.000335794
0.000315733
0.000296107
0.000277103
0.000258862
0.000241489
0.000225052
0.000209592
0.000195127
0.000181655
0.000169181
0.00015765
0.000146965
0.000137145
0.00012817
0.000119968
0.000112477
0.000105664
9.94851e-05
9.38989e-05
8.88662e-05
8.43495e-05
8.03115e-05
7.67221e-05
7.35481e-05
7.07616e-05
6.8336e-05