/*--------------------------------*- C++ -*----------------------------------*\
| =========                 |                                                 |
| \\      /  F ield         | OpenFOAM: The Open Source CFD Toolbox           |
|  \\    /   O peration     | Version:  v2106                                 |
|   \\  /    A nd           | Website:  www.openfoam.com                      |
|    \\/     M anipulation  |                                                 |
\*---------------------------------------------------------------------------*/
FoamFile
{
    version     2.0;
    format      ascii;
    arch        "LSB;label=32;scalar=64";
    class       volScalarField;
    location    "1.5";
    object      omega;
}
// * * * * * * * * * * * * * * * * * * * * * * * * * * * * * * * * * * * * * //

dimensions      [0 0 -1 0 0 0 0];

internalField   nonuniform List<scalar> 
29678
(
6.75675
1.47324
0.594948
0.336136
0.235649
0.189812
0.167135
0.155641
0.149914
0.147193
0.145995
0.145529
0.145393
0.145397
0.145456
0.145539
0.145631
0.145728
0.145828
0.145934
0.146045
0.146164
0.146294
0.146437
0.1466
0.146787
0.147006
0.147266
0.147577
0.147953
0.14841
0.148968
0.149657
0.150511
0.151581
0.15288
0.15437
0.156121
0.158258
0.161029
0.164957
0.172026
0.179508
0.186596
0.191095
0.192556
0.192847
0.192195
0.191199
0.189928
0.188612
0.187334
0.186128
0.185041
0.184033
0.183162
0.182446
0.181904
0.181532
0.181278
0.181136
0.181055
0.181066
0.181195
0.181431
0.18195
0.182593
0.183025
0.183042
0.182653
0.181866
0.180723
0.195567
0.211973
0.222768
0.223604
0.215054
0.199229
0.186708
0.189501
0.192821
0.195088
0.196842
0.198533
0.200366
0.202372
0.204194
0.202028
0.202537
0.211187
0.22132
0.233705
0.257756
0.304485
0.387896
0.544006
0.793678
1.20527
1.37274
1.36734
1.35624
1.18272
1.00362
0.845485
0.706618
0.600998
0.498412
0.43988
0.418645
0.406664
6.75634
1.47228
0.594486
0.335926
0.235557
0.189783
0.167143
0.155672
0.14996
0.147251
0.146062
0.145606
0.14548
0.145493
0.145563
0.145656
0.14576
0.145869
0.145985
0.14611
0.146246
0.146397
0.146566
0.146761
0.146988
0.147257
0.14758
0.147969
0.148444
0.149023
0.149735
0.150611
0.151696
0.152969
0.154394
0.156002
0.157829
0.159916
0.162301
0.165041
0.168386
0.173101
0.17906
0.183626
0.186074
0.187168
0.187372
0.186827
0.185931
0.184893
0.183824
0.182772
0.181752
0.180822
0.180027
0.179376
0.178893
0.178573
0.178422
0.178416
0.17847
0.178589
0.178776
0.179001
0.179326
0.179756
0.180035
0.179931
0.179272
0.177846
0.175287
0.171754
0.167894
0.164781
0.163189
0.162816
0.161518
0.161193
0.163951
0.168453
0.172172
0.175421
0.178576
0.181877
0.185473
0.189329
0.192957
0.194848
0.19621
0.199998
0.206972
0.213467
0.22287
0.240602
0.276777
0.374442
0.574119
0.851753
1.24585
1.19322
1.21951
1.0873
0.988954
0.836734
0.721223
0.607433
0.48526
0.372601
0.267086
0.195599
6.7563
1.47095
0.593841
0.335625
0.23542
0.189735
0.167147
0.155708
0.150016
0.14732
0.146144
0.145699
0.145584
0.145608
0.145688
0.145789
0.145901
0.146019
0.146144
0.146279
0.146425
0.146587
0.146769
0.146978
0.147222
0.14751
0.147854
0.148269
0.148772
0.149383
0.150128
0.15104
0.152157
0.15345
0.154886
0.156489
0.158288
0.160322
0.16266
0.165409
0.168641
0.172084
0.175142
0.177628
0.179606
0.181008
0.181878
0.182098
0.181767
0.181106
0.180252
0.17928
0.178284
0.177339
0.176469
0.175688
0.175008
0.174442
0.174
0.173683
0.173471
0.173345
0.173291
0.173297
0.173423
0.17363
0.17381
0.173805
0.173442
0.17253
0.170881
0.168409
0.165186
0.161815
0.159276
0.157992
0.157656
0.158642
0.160852
0.163844
0.167156
0.169934
0.172623
0.175368
0.178272
0.181414
0.18481
0.187932
0.190837
0.194841
0.200237
0.206705
0.21558
0.228345
0.251633
0.319565
0.486716
0.76704
0.984551
0.998825
1.13252
1.06777
0.933938
0.821092
0.709454
0.605854
0.482653
0.362993
0.258013
0.191449
6.75618
1.46941
0.59311
0.335286
0.23527
0.189686
0.167155
0.155748
0.150073
0.14739
0.146225
0.145792
0.145688
0.14572
0.145807
0.145915
0.146032
0.146155
0.146286
0.146426
0.146578
0.146746
0.146935
0.147151
0.147403
0.1477
0.148054
0.148479
0.148992
0.149613
0.150365
0.151277
0.152385
0.153675
0.155096
0.156665
0.158398
0.160315
0.16243
0.164746
0.16725
0.169969
0.172824
0.175416
0.17742
0.178798
0.179614
0.179732
0.179297
0.17854
0.177608
0.176611
0.175668
0.174811
0.174031
0.173353
0.172803
0.1724
0.172151
0.172049
0.172071
0.17219
0.172379
0.172636
0.172967
0.173271
0.173414
0.173245
0.172629
0.171471
0.169731
0.167452
0.164833
0.162268
0.160265
0.159186
0.159117
0.160161
0.162307
0.165341
0.168661
0.171501
0.174269
0.177096
0.18006
0.183198
0.186408
0.189479
0.192673
0.197017
0.202874
0.209978
0.218781
0.23047
0.248591
0.299405
0.441095
0.712765
0.976179
0.979659
1.11054
1.06246
0.876586
0.776595
0.668294
0.57771
0.470594
0.368048
0.276071
0.206083
6.75585
1.46776
0.592333
0.334934
0.235122
0.189647
0.167171
0.155788
0.150126
0.147454
0.146303
0.145884
0.14579
0.14583
0.145922
0.146035
0.146157
0.146286
0.146423
0.146569
0.146729
0.146905
0.147105
0.147333
0.147599
0.147912
0.148284
0.148729
0.149261
0.149901
0.150671
0.151596
0.152707
0.153999
0.155414
0.156958
0.158641
0.160467
0.162439
0.164545
0.166751
0.168972
0.171047
0.172818
0.174208
0.175205
0.175644
0.175627
0.175311
0.174814
0.174228
0.173641
0.173069
0.172495
0.171954
0.171489
0.171127
0.170881
0.17075
0.170724
0.17078
0.170889
0.171031
0.171227
0.171433
0.17157
0.171559
0.171313
0.170743
0.169778
0.168405
0.166701
0.164807
0.162977
0.161534
0.160709
0.160555
0.161108
0.162384
0.1643
0.166704
0.169359
0.171735
0.174056
0.176463
0.179002
0.181681
0.18458
0.187952
0.192258
0.197734
0.204487
0.212884
0.224137
0.240281
0.280007
0.396784
0.646424
0.956397
0.962996
1.06753
1.03918
0.812278
0.725598
0.624432
0.55112
0.456836
0.364195
0.278251
0.208843
6.75529
1.46602
0.591533
0.334584
0.234994
0.18963
0.167197
0.155824
0.150169
0.147513
0.146381
0.145978
0.145896
0.145945
0.146043
0.146162
0.14629
0.146425
0.146569
0.146725
0.146895
0.147084
0.147299
0.147545
0.147831
0.148166
0.148562
0.149032
0.149591
0.150258
0.151052
0.151998
0.15312
0.154422
0.155838
0.15737
0.159018
0.160781
0.162651
0.164608
0.166618
0.168624
0.170547
0.172292
0.17378
0.174968
0.175786
0.176091
0.176001
0.175638
0.175101
0.174468
0.173813
0.173192
0.172636
0.172165
0.171794
0.171531
0.171377
0.171324
0.171355
0.171445
0.171576
0.171788
0.172002
0.17214
0.172125
0.171882
0.171344
0.170489
0.169337
0.167929
0.166392
0.164952
0.163849
0.16326
0.163258
0.163895
0.165208
0.167159
0.169614
0.171861
0.174031
0.176274
0.178646
0.181193
0.183939
0.186918
0.190389
0.194505
0.199582
0.205893
0.213562
0.223925
0.237917
0.268939
0.364677
0.586164
0.95168
0.972607
1.03204
1.01103
0.762609
0.658905
0.569097
0.510375
0.432709
0.355016
0.279666
0.213007
6.75446
1.46422
0.590722
0.334255
0.234907
0.189646
0.167228
0.155847
0.150199
0.147567
0.146464
0.146084
0.146016
0.146074
0.14618
0.146306
0.146441
0.146584
0.146738
0.146906
0.147091
0.147298
0.147532
0.1478
0.14811
0.148472
0.148896
0.149397
0.149989
0.150688
0.151515
0.152489
0.153633
0.154952
0.156382
0.157914
0.159547
0.161273
0.163079
0.164944
0.166831
0.16869
0.170456
0.172055
0.173428
0.17454
0.175232
0.175515
0.175494
0.17526
0.174895
0.174464
0.174015
0.173584
0.173203
0.172893
0.17267
0.172539
0.172497
0.172532
0.172626
0.172756
0.172936
0.173153
0.17333
0.173399
0.173291
0.172957
0.172384
0.171589
0.170568
0.169382
0.168145
0.166996
0.16609
0.165547
0.165433
0.165796
0.166666
0.168009
0.169736
0.171708
0.173644
0.175556
0.177575
0.179774
0.18221
0.184999
0.188342
0.19238
0.19731
0.203585
0.210868
0.221022
0.233509
0.259419
0.33698
0.526842
0.916671
0.941904
0.99607
0.946698
0.723955
0.57461
0.507647
0.460203
0.401554
0.340362
0.275862
0.21398
6.75334
1.46236
0.589912
0.333968
0.234882
0.189695
0.167249
0.15584
0.150209
0.14762
0.146558
0.146205
0.146155
0.146224
0.146339
0.146472
0.146615
0.14677
0.146938
0.147122
0.147326
0.147554
0.147811
0.148105
0.148443
0.148836
0.149295
0.149833
0.150464
0.151206
0.152074
0.153087
0.154264
0.155613
0.157069
0.158618
0.160255
0.16197
0.163748
0.165566
0.167391
0.169182
0.170887
0.172457
0.173846
0.175025
0.175856
0.176325
0.176505
0.176469
0.176286
0.176012
0.175697
0.175378
0.175087
0.174847
0.174672
0.174567
0.174531
0.174552
0.174614
0.174705
0.174869
0.175049
0.175179
0.175198
0.17505
0.174712
0.174198
0.173493
0.172604
0.171584
0.170521
0.169537
0.168752
0.168266
0.168148
0.168455
0.169212
0.170386
0.171897
0.173608
0.175258
0.176976
0.178852
0.180941
0.183294
0.185993
0.189181
0.193079
0.197594
0.203569
0.21
0.219693
0.230426
0.252806
0.315077
0.475612
0.848534
0.913148
0.969938
0.909129
0.670742
0.498096
0.445846
0.40952
0.367716
0.321216
0.269325
0.213726
6.75191
1.46045
0.58912
0.333754
0.234944
0.189766
0.167233
0.15579
0.150199
0.147675
0.146667
0.146348
0.146317
0.146398
0.146522
0.146664
0.14682
0.14699
0.147176
0.14738
0.147605
0.147857
0.148141
0.148465
0.148837
0.149268
0.149769
0.150352
0.151032
0.151824
0.152744
0.153809
0.155033
0.156425
0.157922
0.159505
0.161167
0.162897
0.164678
0.16649
0.168301
0.170077
0.171777
0.173361
0.174794
0.176051
0.177015
0.177655
0.178025
0.178185
0.178192
0.178096
0.177942
0.177765
0.177595
0.177453
0.177354
0.177302
0.177296
0.177326
0.177379
0.17747
0.177626
0.177777
0.177861
0.177827
0.177632
0.17728
0.176742
0.176013
0.175151
0.174207
0.173248
0.17236
0.171635
0.171155
0.170987
0.17118
0.171748
0.172653
0.173831
0.175212
0.176604
0.17809
0.179748
0.181634
0.183804
0.186329
0.18931
0.193053
0.197156
0.202935
0.208425
0.217866
0.227003
0.247569
0.297959
0.435552
0.768676
0.935218
0.949452
0.905638
0.616733
0.447946
0.393366
0.368046
0.336884
0.301572
0.260223
0.212032
6.75018
1.4585
0.588366
0.333651
0.235101
0.189828
0.167149
0.155688
0.150174
0.147741
0.146797
0.146516
0.146506
0.1466
0.146734
0.14689
0.147063
0.147251
0.147457
0.147682
0.147932
0.148213
0.148529
0.148889
0.149302
0.149778
0.150328
0.150965
0.151703
0.152557
0.153541
0.154671
0.155959
0.157411
0.158965
0.1606
0.162308
0.164077
0.165893
0.167732
0.16957
0.171374
0.173112
0.174751
0.17626
0.177618
0.17875
0.179588
0.180172
0.180547
0.18076
0.180855
0.180871
0.180842
0.180794
0.180748
0.180717
0.180707
0.180716
0.180736
0.18076
0.180845
0.180973
0.181074
0.181095
0.180997
0.180765
0.180368
0.179798
0.179085
0.17825
0.177339
0.176415
0.175551
0.174824
0.174306
0.174058
0.174124
0.17451
0.175179
0.17608
0.177175
0.178331
0.179605
0.181066
0.182764
0.184749
0.187078
0.189783
0.193153
0.196614
0.202066
0.206614
0.215467
0.223126
0.242362
0.285754
0.407741
0.698346
0.947068
0.92656
0.900384
0.586696
0.412135
0.355138
0.336692
0.311145
0.283378
0.249986
0.209159
6.74812
1.45651
0.587679
0.3337
0.235331
0.189834
0.166977
0.155539
0.150145
0.147824
0.146953
0.146712
0.146723
0.146832
0.146983
0.147156
0.147347
0.147555
0.147784
0.148035
0.148315
0.148629
0.148984
0.149386
0.149847
0.150376
0.150984
0.151685
0.152492
0.15342
0.154482
0.155692
0.157063
0.158594
0.160222
0.161928
0.163705
0.16554
0.167418
0.169318
0.171218
0.173088
0.174901
0.176628
0.178242
0.179724
0.181043
0.182104
0.182921
0.183528
0.183964
0.184263
0.184462
0.184589
0.18467
0.184724
0.184763
0.184793
0.184814
0.184821
0.184817
0.184906
0.185007
0.185059
0.185018
0.184877
0.1846
0.184148
0.183531
0.182776
0.181914
0.180985
0.180043
0.17915
0.178371
0.177773
0.177413
0.177329
0.177522
0.177961
0.178607
0.179435
0.180365
0.181432
0.182696
0.184196
0.185972
0.188067
0.190389
0.193439
0.196499
0.20161
0.205462
0.213499
0.220134
0.238278
0.278479
0.391261
0.657207
0.889145
0.898098
0.902404
0.573484
0.385344
0.328039
0.315486
0.291411
0.268203
0.239799
0.205192
6.74574
1.45449
0.587092
0.333945
0.235582
0.189737
0.166712
0.155356
0.150124
0.147933
0.147139
0.146939
0.146975
0.147104
0.147273
0.147465
0.147677
0.147908
0.148163
0.148446
0.14876
0.149114
0.149512
0.149965
0.150481
0.151072
0.151749
0.152525
0.153414
0.15443
0.155587
0.156897
0.158371
0.160001
0.161722
0.163521
0.16539
0.167317
0.169286
0.171279
0.173274
0.175245
0.177167
0.179014
0.180762
0.182391
0.183887
0.185201
0.186276
0.187136
0.187812
0.188332
0.188726
0.189021
0.189238
0.189396
0.189507
0.189577
0.189608
0.189599
0.18961
0.189688
0.189753
0.189746
0.189648
0.189444
0.18909
0.188578
0.187909
0.187095
0.18617
0.185182
0.184178
0.18321
0.182337
0.181618
0.181109
0.180843
0.180823
0.181026
0.181423
0.182001
0.182713
0.183577
0.184641
0.185935
0.187484
0.189316
0.191382
0.19418
0.196992
0.20176
0.205202
0.212409
0.218599
0.236165
0.275899
0.384576
0.643998
0.822495
0.87083
0.92723
0.55682
0.367848
0.30638
0.296944
0.275056
0.25642
0.230838
0.200722
6.74303
1.45245
0.586631
0.334422
0.235806
0.189503
0.16636
0.155157
0.150123
0.148073
0.147359
0.147204
0.147269
0.147419
0.147608
0.147821
0.148056
0.148316
0.148602
0.14892
0.149275
0.149675
0.150125
0.150636
0.151218
0.151881
0.152638
0.153503
0.154489
0.15561
0.15688
0.158311
0.159913
0.161661
0.163496
0.165411
0.167397
0.169443
0.171534
0.173652
0.175776
0.177883
0.179948
0.181948
0.183858
0.185661
0.187338
0.188879
0.190243
0.191382
0.19232
0.19308
0.193686
0.194161
0.194524
0.194793
0.194979
0.195091
0.195129
0.195103
0.195141
0.195214
0.195245
0.195184
0.195033
0.194742
0.194303
0.193715
0.192976
0.192088
0.191076
0.189989
0.188876
0.18779
0.186781
0.185903
0.185208
0.184728
0.184471
0.184423
0.184569
0.184902
0.185401
0.186066
0.186934
0.188028
0.189376
0.191005
0.192897
0.1955
0.198149
0.20258
0.205867
0.212357
0.218868
0.236404
0.277476
0.385315
0.651599
0.788361
0.872381
0.958767
0.550738
0.357639
0.288513
0.278157
0.258095
0.244929
0.222489
0.196147
6.73999
1.45038
0.586287
0.335108
0.235979
0.189132
0.165938
0.154959
0.150149
0.148248
0.147621
0.147514
0.147608
0.147781
0.147992
0.148229
0.148493
0.148784
0.149107
0.149466
0.149869
0.150322
0.150833
0.151412
0.152069
0.152817
0.153669
0.154638
0.155738
0.156984
0.15839
0.159967
0.161724
0.163606
0.165578
0.167635
0.169766
0.171961
0.174206
0.176483
0.178772
0.18105
0.183295
0.185482
0.187588
0.189592
0.191476
0.193224
0.194824
0.196266
0.197496
0.198519
0.199356
0.200027
0.200549
0.200939
0.201207
0.201364
0.201414
0.201381
0.201462
0.20154
0.201536
0.201439
0.201209
0.200828
0.200291
0.199602
0.198763
0.197782
0.196672
0.195461
0.194201
0.192951
0.191764
0.190689
0.189773
0.189048
0.188528
0.188211
0.188094
0.188177
0.188459
0.18893
0.18961
0.190529
0.191717
0.193212
0.195011
0.197489
0.200042
0.204149
0.2075
0.213468
0.221061
0.23846
0.280614
0.390458
0.671608
0.774998
0.882129
0.984262
0.560832
0.357101
0.277033
0.264757
0.243629
0.232783
0.214488
0.19194
6.73662
1.44827
0.58605
0.335904
0.236093
0.188652
0.16547
0.154758
0.150208
0.148474
0.147935
0.147874
0.147996
0.148194
0.14843
0.148696
0.148992
0.14932
0.149686
0.150094
0.150551
0.151066
0.151648
0.152305
0.153051
0.153899
0.15486
0.155951
0.157186
0.15858
0.160148
0.161901
0.163832
0.165871
0.168007
0.170233
0.17254
0.174917
0.177352
0.179825
0.182317
0.184807
0.187271
0.189685
0.192023
0.194262
0.196381
0.19836
0.200182
0.201835
0.203313
0.204611
0.205712
0.206602
0.207301
0.207826
0.208189
0.208401
0.208473
0.208524
0.208642
0.20872
0.208696
0.208553
0.208243
0.207763
0.207114
0.206302
0.205333
0.20422
0.202982
0.20164
0.200217
0.198768
0.197358
0.196045
0.194873
0.193873
0.193065
0.192456
0.192057
0.191874
0.191917
0.192194
0.192705
0.193469
0.194537
0.195953
0.197733
0.200183
0.202718
0.20661
0.210102
0.215831
0.224604
0.241673
0.283949
0.397171
0.692712
0.779878
0.911837
1.01159
0.581053
0.362754
0.270645
0.255491
0.232744
0.222047
0.206307
0.187942
6.7329
1.44617
0.586006
0.3367
0.23611
0.188044
0.164934
0.154597
0.15034
0.148764
0.148305
0.148287
0.14844
0.148665
0.14893
0.149229
0.149562
0.149934
0.150348
0.150812
0.151333
0.15192
0.152583
0.153332
0.154182
0.155144
0.156235
0.157469
0.158863
0.160433
0.162193
0.164156
0.16627
0.168494
0.170822
0.173249
0.175766
0.178364
0.181027
0.183739
0.186479
0.189226
0.191955
0.194639
0.197251
0.199764
0.202152
0.204388
0.206453
0.208328
0.210004
0.211472
0.212732
0.213785
0.214633
0.215282
0.215738
0.216007
0.216109
0.216281
0.216511
0.216658
0.216676
0.216509
0.216147
0.215589
0.21483
0.213877
0.212753
0.211474
0.210065
0.208553
0.206958
0.205305
0.203645
0.202051
0.200582
0.199275
0.198151
0.197227
0.196521
0.196049
0.195831
0.195883
0.196223
0.196865
0.197838
0.199213
0.201019
0.203512
0.206041
0.209875
0.213385
0.219235
0.228902
0.246263
0.288975
0.404388
0.711923
0.808068
0.975118
1.03614
0.613272
0.376817
0.268398
0.24905
0.223376
0.211641
0.196816
0.183562
6.7288
1.44416
0.586341
0.337392
0.235889
0.187233
0.164414
0.154532
0.15055
0.149119
0.148735
0.148759
0.148944
0.149199
0.149498
0.149835
0.150212
0.150633
0.151104
0.151632
0.152227
0.152898
0.153655
0.15451
0.155479
0.156577
0.157818
0.15922
0.160801
0.162579
0.164569
0.166759
0.169077
0.171514
0.174068
0.176733
0.1795
0.18236
0.185298
0.188297
0.191335
0.19439
0.197435
0.200441
0.203375
0.206206
0.208899
0.211425
0.213756
0.215872
0.217758
0.219405
0.220811
0.221974
0.222898
0.223588
0.224049
0.224291
0.224356
0.224582
0.224825
0.224987
0.225027
0.224887
0.224557
0.224035
0.223287
0.2223
0.221062
0.219604
0.21799
0.21626
0.214447
0.212577
0.210673
0.208783
0.20698
0.205324
0.203852
0.202587
0.201549
0.200763
0.200258
0.200059
0.200193
0.200696
0.201604
0.202951
0.204776
0.207307
0.209754
0.213719
0.217211
0.223725
0.234009
0.252464
0.295697
0.411123
0.735255
0.866134
1.0718
1.0682
0.650319
0.398884
0.270685
0.244765
0.216179
0.202477
0.187927
0.177593
6.72428
1.44231
0.587217
0.337934
0.235187
0.186281
0.164001
0.154567
0.15084
0.149542
0.149228
0.149296
0.149515
0.149804
0.150141
0.150522
0.150949
0.151427
0.151964
0.152567
0.153246
0.154013
0.154879
0.155859
0.156967
0.158221
0.159639
0.161239
0.163041
0.165064
0.167321
0.169738
0.17229
0.174975
0.177792
0.180736
0.183799
0.186969
0.190234
0.193575
0.196969
0.200392
0.203814
0.2072
0.210511
0.213708
0.216749
0.219598
0.222225
0.224604
0.22672
0.228562
0.230125
0.231407
0.232411
0.23314
0.2336
0.233807
0.233931
0.234174
0.234398
0.23454
0.23451
0.234278
0.233837
0.233189
0.232336
0.231283
0.230036
0.228547
0.226789
0.22483
0.222751
0.220608
0.218435
0.216261
0.214127
0.212099
0.210241
0.208599
0.207201
0.206077
0.205258
0.204778
0.204676
0.204995
0.205791
0.207116
0.208923
0.211461
0.213779
0.218126
0.221757
0.229426
0.240193
0.260249
0.303261
0.417724
0.773488
0.921884
1.18756
1.1183
0.697002
0.425223
0.279064
0.243364
0.212957
0.197009
0.18237
0.172896
6.71936
1.44055
0.588611
0.338144
0.234111
0.185321
0.163704
0.1547
0.151211
0.150037
0.14979
0.149902
0.150159
0.150488
0.150868
0.151299
0.151783
0.152328
0.15294
0.153629
0.154406
0.155283
0.156276
0.157399
0.158669
0.160106
0.16173
0.163563
0.165625
0.167939
0.17046
0.173129
0.175949
0.178921
0.182044
0.185314
0.188723
0.19226
0.195912
0.199659
0.203477
0.207338
0.211206
0.215038
0.218787
0.222404
0.225841
0.229056
0.232014
0.23469
0.237064
0.239125
0.240866
0.242283
0.243376
0.244148
0.244606
0.244773
0.244959
0.24523
0.245453
0.24556
0.24545
0.245102
0.244511
0.243684
0.242631
0.241368
0.239912
0.238249
0.236363
0.23426
0.231935
0.22948
0.226977
0.224476
0.22201
0.219622
0.217373
0.215326
0.213536
0.212042
0.210881
0.210093
0.209721
0.209817
0.210444
0.211649
0.213376
0.215959
0.218213
0.223168
0.227118
0.23614
0.247392
0.269103
0.31171
0.428265
0.846157
0.969294
1.33438
1.2059
0.773477
0.448213
0.295156
0.246638
0.215082
0.195877
0.180722
0.170599
6.71405
1.43879
0.590402
0.337947
0.232823
0.184467
0.163526
0.154931
0.151663
0.150606
0.150426
0.150584
0.150883
0.151256
0.151687
0.152175
0.152725
0.153345
0.154044
0.154832
0.155722
0.156728
0.157865
0.159154
0.160613
0.162264
0.16413
0.166235
0.168604
0.171223
0.174011
0.176966
0.180093
0.183395
0.186873
0.190522
0.194336
0.198304
0.202412
0.206641
0.210962
0.215341
0.219734
0.22409
0.228347
0.232447
0.236337
0.23997
0.24331
0.246328
0.249004
0.251321
0.253271
0.254847
0.256046
0.256869
0.257323
0.257457
0.25772
0.258023
0.258262
0.258317
0.258111
0.257623
0.256852
0.255807
0.254502
0.252958
0.2512
0.249223
0.247024
0.244633
0.242055
0.239282
0.236401
0.233501
0.230643
0.227868
0.225225
0.222776
0.220581
0.218693
0.217162
0.216036
0.215361
0.215189
0.215581
0.216583
0.218149
0.22076
0.223088
0.228793
0.23318
0.243595
0.255521
0.278742
0.321923
0.447158
0.967231
1.02105
1.53344
1.33617
0.861247
0.463084
0.31817
0.251969
0.221934
0.197921
0.182263
0.17043
6.70835
1.43699
0.592575
0.33738
0.231374
0.183746
0.163467
0.155259
0.152201
0.151255
0.151141
0.151349
0.151694
0.152118
0.152606
0.153159
0.153785
0.154492
0.15529
0.156192
0.157212
0.158366
0.159672
0.161151
0.162829
0.16473
0.166879
0.169304
0.172013
0.174915
0.178003
0.181282
0.184759
0.188439
0.192325
0.196414
0.2007
0.205174
0.209821
0.21462
0.219539
0.224532
0.229545
0.234511
0.239358
0.244019
0.248436
0.252559
0.256349
0.259775
0.262811
0.265438
0.26764
0.269407
0.270731
0.271612
0.27206
0.27224
0.272567
0.272893
0.273139
0.273129
0.272806
0.272148
0.271157
0.269847
0.268236
0.266351
0.264218
0.261822
0.259176
0.25633
0.25332
0.250146
0.246832
0.243463
0.240126
0.236886
0.233795
0.230911
0.228292
0.225995
0.224076
0.222587
0.221573
0.22108
0.221165
0.221897
0.223275
0.225894
0.22835
0.234784
0.239763
0.251666
0.264766
0.290069
0.337254
0.483457
1.13739
1.13227
1.74389
1.50325
0.967228
0.482065
0.344138
0.259558
0.232297
0.201862
0.185952
0.171668
6.70224
1.43514
0.59468
0.336725
0.229983
0.18317
0.163528
0.155687
0.152826
0.151989
0.151941
0.152202
0.152599
0.15308
0.153633
0.154262
0.154974
0.15578
0.156692
0.157724
0.158893
0.160218
0.16172
0.163422
0.165352
0.167543
0.170024
0.172813
0.175824
0.179035
0.182457
0.186102
0.189976
0.194089
0.198444
0.203043
0.207881
0.212951
0.218238
0.223717
0.229347
0.23507
0.240812
0.246493
0.252031
0.257352
0.262394
0.267106
0.271442
0.275364
0.27884
0.281842
0.284349
0.286342
0.287811
0.288751
0.289181
0.289455
0.289847
0.290224
0.290452
0.290365
0.289899
0.289036
0.28778
0.286147
0.284162
0.281858
0.279264
0.276336
0.27312
0.269678
0.266067
0.262322
0.258459
0.254528
0.250615
0.246804
0.243166
0.239762
0.236653
0.233895
0.231543
0.229648
0.228258
0.22741
0.227152
0.227579
0.228748
0.231337
0.233964
0.240958
0.246626
0.260213
0.275378
0.303914
0.361069
0.544361
1.32378
1.33295
1.84845
1.70301
1.14108
0.526038
0.376975
0.26766
0.244486
0.205569
0.190583
0.173512
6.69571
1.43325
0.596495
0.33612
0.228754
0.182741
0.163709
0.156215
0.153543
0.15281
0.152832
0.15315
0.153606
0.154151
0.154779
0.155493
0.156303
0.157222
0.158263
0.159445
0.160786
0.162307
0.164035
0.165996
0.168221
0.170748
0.173607
0.176718
0.180042
0.183595
0.187391
0.191446
0.195771
0.200377
0.205274
0.210467
0.215955
0.221733
0.227786
0.234081
0.240562
0.247149
0.253753
0.260277
0.266636
0.272752
0.278558
0.283994
0.289004
0.293538
0.29755
0.301004
0.303868
0.306118
0.307738
0.308725
0.309113
0.309499
0.30997
0.310424
0.310634
0.310454
0.309818
0.308707
0.307128
0.305102
0.302663
0.299849
0.29667
0.293076
0.28915
0.284968
0.2806
0.276107
0.271524
0.266894
0.262285
0.257786
0.253481
0.249444
0.245741
0.24243
0.239565
0.237196
0.235374
0.234136
0.233521
0.233622
0.234547
0.237022
0.239792
0.247192
0.253598
0.268887
0.287002
0.319916
0.39147
0.622962
1.46848
1.49412
1.88436
1.90722
1.29471
0.616374
0.414856
0.283736
0.255289
0.209527
0.194586
0.175206
6.68874
1.43143
0.597987
0.335525
0.22768
0.182459
0.164011
0.156848
0.154354
0.153725
0.153818
0.154199
0.15472
0.155339
0.156051
0.156861
0.157783
0.15883
0.16002
0.161373
0.16291
0.164658
0.166646
0.168907
0.171478
0.174389
0.177582
0.181003
0.184668
0.188598
0.192811
0.197327
0.202165
0.207339
0.212867
0.218759
0.225022
0.231654
0.238632
0.245909
0.253404
0.261018
0.268643
0.276181
0.283541
0.29064
0.297399
0.30374
0.309587
0.314869
0.319525
0.323506
0.32677
0.329289
0.331044
0.332036
0.33235
0.332871
0.333451
0.333993
0.334184
0.333896
0.333059
0.331651
0.329683
0.327184
0.324195
0.320763
0.316838
0.312411
0.307601
0.302503
0.297205
0.291785
0.2863
0.280801
0.275349
0.270026
0.264922
0.260121
0.255698
0.251717
0.248234
0.245299
0.242964
0.241276
0.240274
0.240024
0.24065
0.242883
0.245704
0.25326
0.260454
0.276977
0.298133
0.33577
0.418673
0.687888
1.51516
1.53603
1.96282
2.00706
1.37799
0.760386
0.43149
0.302715
0.261879
0.21314
0.196542
0.175918
6.68126
1.43002
0.598948
0.334809
0.226745
0.182321
0.164434
0.157585
0.155264
0.154737
0.154905
0.155355
0.155949
0.156651
0.157457
0.158377
0.159425
0.160619
0.161977
0.163524
0.165287
0.167295
0.169583
0.172191
0.175153
0.178413
0.181904
0.185655
0.189693
0.194039
0.19872
0.20376
0.209186
0.215022
0.221295
0.228025
0.235225
0.242892
0.250989
0.259444
0.268148
0.276985
0.285846
0.294631
0.303244
0.311587
0.319553
0.327029
0.333908
0.340091
0.345496
0.35006
0.353739
0.3565
0.358332
0.359243
0.359566
0.360185
0.360904
0.361498
0.361663
0.361248
0.360175
0.35842
0.355997
0.352937
0.34929
0.345108
0.340248
0.334785
0.328873
0.322643
0.316209
0.309664
0.303083
0.296528
0.29006
0.283755
0.2777
0.271988
0.266702
0.261916
0.257691
0.254078
0.251126
0.248894
0.247433
0.246782
0.247037
0.248879
0.251613
0.258959
0.266833
0.283968
0.307293
0.348845
0.435097
0.715382
1.48107
1.49454
2.08425
1.9553
1.47738
0.848706
0.435831
0.317309
0.256364
0.216119
0.193527
0.174703
6.67314
1.42979
0.598909
0.333705
0.225927
0.182327
0.164977
0.158428
0.156273
0.15585
0.156097
0.156622
0.157298
0.158092
0.159005
0.160049
0.16124
0.162599
0.164149
0.165918
0.167937
0.170243
0.172876
0.175875
0.179187
0.182738
0.186555
0.190664
0.195105
0.199919
0.205129
0.210771
0.216882
0.223501
0.230667
0.238413
0.246756
0.255681
0.265125
0.274984
0.285132
0.295454
0.305847
0.316211
0.32643
0.336369
0.345872
0.354778
0.362925
0.370182
0.376443
0.381633
0.385702
0.388619
0.39038
0.391035
0.391337
0.391995
0.392856
0.3935
0.393635
0.39308
0.391742
0.389599
0.386657
0.382952
0.378536
0.373461
0.367476
0.360737
0.353462
0.345835
0.338007
0.330097
0.322197
0.314376
0.306698
0.299231
0.292057
0.28527
0.278962
0.273216
0.268101
0.263674
0.259982
0.257083
0.255049
0.253912
0.253711
0.255012
0.257475
0.264242
0.27261
0.289586
0.31422
0.357925
0.443802
0.714697
1.37938
1.39641
2.1403
1.88885
1.43082
0.814393
0.417378
0.323436
0.246313
0.216816
0.188849
0.173402
6.66431
1.43173
0.597253
0.3319
0.225219
0.182473
0.165638
0.159377
0.157385
0.157066
0.157397
0.158005
0.158771
0.159669
0.160702
0.161885
0.163237
0.164782
0.166549
0.16857
0.170882
0.173527
0.176546
0.179888
0.183474
0.187335
0.191504
0.196018
0.200913
0.206242
0.212062
0.218407
0.22533
0.232888
0.241137
0.250122
0.259857
0.270297
0.281349
0.292885
0.304789
0.316962
0.32931
0.341716
0.354031
0.366064
0.377608
0.388418
0.398212
0.406929
0.414402
0.420459
0.424952
0.427788
0.428993
0.428777
0.428611
0.429133
0.430055
0.430659
0.430696
0.429953
0.428318
0.425749
0.422242
0.417824
0.412546
0.406469
0.39919
0.390917
0.381973
0.372625
0.363083
0.353507
0.344012
0.334678
0.325566
0.316739
0.308264
0.300226
0.29272
0.285839
0.279663
0.274258
0.269675
0.265967
0.263209
0.261454
0.260701
0.26133
0.263315
0.269213
0.277789
0.294011
0.319492
0.3643
0.45023
0.702066
1.25605
1.27728
2.0963
1.73468
1.20442
0.68568
0.384475
0.318323
0.242541
0.215751
0.186526
0.173333
6.65495
1.43371
0.595375
0.330113
0.22466
0.182756
0.166417
0.160431
0.158599
0.158387
0.158807
0.159506
0.160373
0.161387
0.162553
0.163891
0.165424
0.167179
0.169191
0.171496
0.17414
0.177161
0.180508
0.184103
0.18798
0.192178
0.196739
0.201705
0.207127
0.213054
0.219566
0.226741
0.234637
0.24333
0.252899
0.263394
0.274807
0.287057
0.300026
0.313599
0.327695
0.34224
0.357141
0.372268
0.387513
0.402551
0.417657
0.432641
0.447044
0.46031
0.471843
0.481007
0.487123
0.489543
0.488085
0.483483
0.478889
0.475785
0.474419
0.473825
0.473381
0.472485
0.470512
0.467435
0.463296
0.458107
0.451899
0.444739
0.436111
0.426073
0.415132
0.403686
0.392042
0.380426
0.368991
0.357836
0.347023
0.336602
0.326622
0.317167
0.308276
0.300061
0.292623
0.286042
0.280382
0.275691
0.272039
0.269494
0.268067
0.267915
0.269226
0.274081
0.282463
0.297753
0.323583
0.369094
0.456341
0.691195
1.15095
1.17569
2.04002
1.53523
0.964004
0.572014
0.371789
0.308753
0.243534
0.215018
0.186896
0.174323
6.64506
1.43545
0.593539
0.328479
0.224259
0.183174
0.16731
0.161591
0.159915
0.159813
0.160329
0.161126
0.162105
0.163247
0.164562
0.166073
0.167807
0.169798
0.172084
0.17471
0.177715
0.181042
0.184619
0.188483
0.192679
0.197252
0.202253
0.207736
0.213764
0.220406
0.227736
0.235876
0.244942
0.255015
0.266189
0.278507
0.291919
0.30632
0.321608
0.337722
0.354632
0.372301
0.390728
0.409872
0.431025
0.455301
0.48305
0.513654
0.545545
0.576687
0.604986
0.628424
0.644363
0.64915
0.639942
0.617454
0.58936
0.565511
0.549075
0.53808
0.530461
0.524676
0.519731
0.515045
0.510127
0.504268
0.497097
0.488764
0.478921
0.466994
0.453763
0.439819
0.425625
0.411515
0.397711
0.384348
0.371542
0.359259
0.347529
0.336402
0.325917
0.316164
0.307251
0.299276
0.292319
0.286439
0.2817
0.278166
0.275908
0.274876
0.275357
0.279079
0.286832
0.301289
0.327088
0.373764
0.46543
0.689822
1.07878
1.10603
2.02081
1.38663
0.841809
0.523394
0.373826
0.303276
0.246309
0.215015
0.188547
0.175655
6.63466
1.43698
0.591774
0.327012
0.224016
0.183722
0.168316
0.162853
0.161333
0.161343
0.161961
0.162867
0.163967
0.16525
0.16673
0.168433
0.170392
0.172645
0.175237
0.178207
0.181488
0.185019
0.188844
0.193007
0.197559
0.202556
0.208058
0.214135
0.220868
0.228347
0.236676
0.24597
0.256413
0.268159
0.281271
0.29576
0.311541
0.328527
0.346692
0.366066
0.386706
0.408772
0.433591
0.465083
0.508404
0.568603
0.646613
0.738167
0.835433
0.930112
1.01665
1.09162
1.14873
1.17657
1.16315
1.10265
1.00403
0.900389
0.806297
0.73089
0.675192
0.635234
0.60681
0.586498
0.571517
0.559543
0.548943
0.538759
0.527938
0.514323
0.498698
0.481918
0.464708
0.447588
0.430939
0.414911
0.399632
0.385102
0.371315
0.358268
0.345969
0.334468
0.32386
0.314254
0.305754
0.298442
0.29239
0.287652
0.284364
0.282329
0.281872
0.2844
0.29117
0.304945
0.330659
0.379699
0.477547
0.698607