/*--------------------------------*- C++ -*----------------------------------*\
| =========                 |                                                 |
| \\      /  F ield         | OpenFOAM: The Open Source CFD Toolbox           |
|  \\    /   O peration     | Version:  v2106                                 |
|   \\  /    A nd           | Website:  www.openfoam.com                      |
|    \\/     M anipulation  |                                                 |
\*---------------------------------------------------------------------------*/
FoamFile
{
    version     2.0;
    format      ascii;
    arch        "LSB;label=32;scalar=64";
    class       volScalarField;
    location    "1.5";
    object      p;
}
// * * * * * * * * * * * * * * * * * * * * * * * * * * * * * * * * * * * * * //

dimensions      [1 -1 -2 0 0 0 0];

internalField   nonuniform List<scalar> 
29678
(
14641.9
14494.7
14347.6
14200.4
14053.3
13906.1
13759
13611.8
13464.6
13317.4
13170.3
13023.1
12875.9
12728.7
12581.5
12434.3
12287.1
12139.9
11992.7
11845.5
11698.3
11551.1
11403.8
11256.6
11109.3
10962.1
10814.8
10667.5
10520.2
10372.9
10225.6
10078.2
9930.76
9783.28
9635.71
9487.97
9339.94
9191.29
9041.27
8888.36
8730.52
8564.08
8382.52
8210.17
8051.73
7898.23
7746.9
7596.63
7446.98
7297.75
7148.8
7000.07
6851.53
6703.15
6554.93
6406.87
6258.94
6111.17
5963.54
5816.06
5668.72
5521.52
5374.44
5227.49
5080.64
4933.89
4787.24
4640.65
4494.08
4347.48
4200.73
4053.58
3905.8
3757.32
3609.58
3462.37
3315.67
3169.51
3022.93
2876.03
2728.94
2581.86
2434.8
2287.67
2140.25
1991.92
1842.45
1690.05
1533.4
1385.71
1236.97
1086.18
931.305
780.878
627.549
471.763
311.628
157.218
29.3081
0.00530517
-0.295297
-0.3446
-0.53628
-0.689146
-0.8714
-1.04504
-1.22583
-1.40397
-1.58419
-1.76569
14642.8
14495.7
14348.5
14201.3
14054.2
13907
13759.8
13612.6
13465.4
13318.2
13170.9
13023.7
12876.5
12729.2
12582
12434.7
12287.4
12140.1
11992.8
11845.4
11698.1
11550.7
11403.3
11255.9
11108.4
10961
10813.5
10665.9
10518.3
10370.7
10222.9
10075.1
9927.19
9779.11
9630.81
9482.21
9333.15
9183.47
9032.98
8881.43
8727.31
8565.65
8391.91
8220.75
8060.7
7905.65
7753.07
7601.8
7451.36
7301.49
7152.03
7002.87
6853.94
6705.24
6556.72
6408.39
6260.22
6112.21
5964.37
5816.69
5669.15
5521.76
5374.49
5227.35
5080.31
4933.37
4786.53
4639.74
4493
4346.23
4199.36
4052.35
3904.76
3756.69
3608.93
3461.62
3314.74
3168.09
3021.11
2873.81
2726.5
2579.22
2431.96
2284.7
2137.32
1989.7
1840.08
1690.44
1534.17
1384.73
1236.11
1086.32
933.019
782.034
630.3
476.121
317.497
165.533
34.3228
-0.0399328
-0.262091
-0.366653
-0.53851
-0.6964
-0.873132
-1.04631
-1.22483
-1.40269
-1.58247
-1.76371
14643.8
14496.6
14349.5
14202.3
14055.1
13907.9
13760.6
13613.4
13466.2
13318.9
13171.6
13024.3
12877
12729.7
12582.4
12435
12287.6
12140.2
11992.8
11845.3
11697.9
11550.3
11402.8
11255.2
11107.5
10959.9
10812.1
10664.3
10516.4
10368.5
10220.4
10072.1
9923.74
9775.12
9626.19
9476.84
9326.91
9176.15
9024.12
8869.98
8712.4
8551.07
8388.13
8226.57
8068.37
7912.93
7759.48
7607.38
7456.19
7305.65
7155.61
7005.95
6856.62
6707.58
6558.77
6410.17
6261.77
6113.57
5965.54
5817.67
5669.96
5522.4
5374.97
5227.65
5080.45
4933.34
4786.29
4639.3
4492.31
4345.29
4198.18
4050.92
3903.44
3755.81
3608.29
3460.99
3313.92
3166.97
3019.95
2872.81
2725.57
2578.22
2430.76
2283.12
2135.18
1986.76
1837.36
1687.32
1535.6
1385.79
1236.24
1085.99
934.667
783.663
632.2
480.09
327.075
175.427
48.848
-0.0379525
-0.209595
-0.363865
-0.530743
-0.695124
-0.871044
-1.04559
-1.22377
-1.40267
-1.58261
-1.76333
14644.7
14497.6
14350.4
14203.2
14056
13908.8
13761.5
13614.2
13467
13319.7
13172.3
13025
12877.6
12730.2
12582.8
12435.4
12287.9
12140.4
11992.9
11845.3
11697.7
11550
11402.3
11254.5
11106.7
10958.8
10810.8
10662.8
10514.6
10366.4
10217.9
10069.3
9920.51
9771.41
9621.96
9472.03
9321.49
9170.11
9017.63
8863.67
8708.04
8550.59
8391.24
8231.82
8074.18
7918.56
7764.59
7611.89
7460.12
7309.08
7158.6
7008.56
6858.89
6709.53
6560.44
6411.59
6262.97
6114.56
5966.33
5818.28
5670.39
5522.65
5375.05
5227.57
5080.2
4932.91
4785.7
4638.54
4491.39
4344.23
4197.02
4049.74
3902.34
3754.86
3607.41
3460.07
3312.84
3165.67
3018.44
2871.13
2723.74
2576.26
2428.68
2280.94
2132.94
1984.56
1835.6
1686.11
1535.91
1386.11
1236.43
1086.51
936.107
785.578
634.816
483.776
331.832
181.808
52.1584
-0.0691865
-0.194047
-0.357341
-0.526685
-0.690884
-0.868684
-1.04351
-1.22192
-1.40104
-1.58103
-1.76165
14645.7
14498.5
14351.4
14204.1
14056.9
13909.7
13762.4
13615.1
13467.8
13320.4
13173.1
13025.7
12878.3
12730.8
12583.3
12435.8
12288.2
12140.6
11993
11845.3
11697.5
11549.7
11401.9
11253.9
11105.9
10957.8
10809.7
10661.4
10513
10364.4
10215.7
10066.7
9917.53
9768.04
9618.17
9467.82
9316.86
9165.13
9012.47
8858.68
8703.62
8547.27
8389.9
8232.64
8076.43
7921.49
7767.73
7614.96
7463.01
7311.72
7160.97
7010.68
6860.75
6711.14
6561.83
6412.77
6263.96
6115.36
5966.96
5818.75
5670.7
5522.82
5375.07
5227.44
5079.93
4932.51
4785.16
4637.86
4490.6
4343.33
4196.03
4048.68
3901.28
3753.85
3606.44
3459.09
3311.82
3164.57
3017.32
2870.01
2722.62
2575.14
2427.51
2279.71
2131.65
1983.28
1834.53
1685.41
1535.96
1386.53
1237.15
1087.63
937.897
788.061
638.136
488.159
337.914
188.729
56.0038
-0.0785377
-0.182142
-0.339504
-0.518787
-0.682644
-0.864278
-1.04021
-1.21953
-1.39933
-1.57965
-1.76032
14646.7
14499.5
14352.3
14205.1
14057.9
13910.6
13763.3
13616
13468.6
13321.2
13173.8
13026.4
12878.9
12731.4
12583.8
12436.2
12288.6
12140.9
11993.1
11845.3
11697.4
11549.5
11401.5
11253.4
11105.2
10957
10808.6
10660.1
10511.4
10362.6
10213.6
10064.4
9914.85
9765.03
9614.83
9464.16
9312.93
9161.05
9008.4
8854.88
8700.47
8545.26
8389.52
8233.79
8078.58
7924.15
7770.56
7617.76
7465.65
7314.14
7163.14
7012.58
6862.38
6712.54
6563
6413.75
6264.75
6115.98
5967.42
5819.05
5670.86
5522.83
5374.94
5227.18
5079.53
4931.98
4784.51
4637.1
4489.72
4342.35
4194.99
4047.61
3900.2
3752.79
3605.4
3458.03
3310.7
3163.37
3016.03
2868.64
2721.18
2573.63
2425.97
2278.16
2130.16
1981.94
1833.45
1684.72
1535.79
1386.78
1237.77
1088.69
939.527
790.333
641.135
491.974
342.826
194.084
59.4809
-0.00410336
-0.165366
-0.312984
-0.50879
-0.672518
-0.858389
-1.0362
-1.21664
-1.39722
-1.57799
-1.75891
14647.7
14500.5
14353.3
14206.1
14058.8
13911.5
13764.2
13616.9
13469.5
13322.1
13174.6
13027.1
12879.6
12732
12584.4
12436.7
12289
12141.2
11993.3
11845.4
11697.4
11549.4
11401.2
11253
11104.6
10956.2
10807.6
10658.9
10510
10361
10211.7
10062.2
9912.47
9762.4
9611.95
9461.07
9309.67
9157.72
9005.16
8851.92
8698.04
8543.63
8388.88
8234.12
8079.66
7925.71
7772.35
7619.61
7467.46
7315.84
7164.7
7013.97
6863.6
6713.58
6563.87
6414.45
6265.28
6116.36
5967.65
5819.14
5670.81
5522.65
5374.64
5226.77
5079.01
4931.35
4783.78
4636.27
4488.8
4341.37
4193.96
4046.54
3899.13
3751.72
3604.32
3456.94
3309.59
3162.23
3014.87
2867.46
2720.01
2572.47
2424.83
2277.07
2129.16
1981.08
1832.81
1684.39
1535.83
1387.2
1238.58
1089.95
941.327
792.761
644.284
495.976
347.897
200.104
63.3344
0.105882
-0.14456
-0.278955
-0.495902
-0.66297
-0.851121
-1.03218
-1.21383
-1.39522
-1.57648
-1.75768
14648.8
14501.6
14354.4
14207.1
14059.8
13912.5
13765.2
13617.8
13470.4
13322.9
13175.4
13027.9
12880.3
12732.7
12585
12437.2
12289.4
12141.6
11993.6
11845.6
11697.5
11549.3
11401
11252.7
11104.2
10955.5
10806.8
10657.9
10508.8
10359.6
10210.1
10060.4
9910.39
9760.1
9609.47
9458.44
9306.95
9154.98
9002.51
8849.53
8696.07
8542.24
8388.18
8234.11
8080.22
7926.68
7773.57
7620.95
7468.81
7317.13
7165.88
7015.02
6864.51
6714.33
6564.47
6414.9
6265.59
6116.53
5967.69
5819.05
5670.6
5522.33
5374.21
5226.23
5078.37
4930.62
4782.96
4635.38
4487.85
4340.36
4192.9
4045.45
3898.02
3750.61
3603.21
3455.82
3308.45
3161.08
3013.69
2866.28
2718.82
2571.29
2423.68
2275.98
2128.16
1980.23
1832.17
1684.02
1535.8
1387.53
1239.29
1091.1
942.976
794.986
647.165
499.603
352.435
205.256
66.8246
0.208263
-0.124595
-0.252761
-0.479508
-0.657033
-0.844427
-1.02868
-1.21147
-1.39351
-1.57516
-1.75661
14649.8
14502.6
14355.4
14208.2
14060.9
13913.5
13766.2
13618.8
13471.3
13323.8
13176.3
13028.7
12881.1
12733.4
12585.6
12437.8
12290
12142
11994
11845.9
11697.7
11549.4
11401
11252.4
11103.8
10955
10806.1
10657
10507.8
10358.3
10208.7
10058.8
9908.59
9758.13
9607.34
9456.2
9304.65
9152.69
9000.33
8847.56
8694.43
8541.02
8387.45
8233.86
8080.4
7927.18
7774.3
7621.8
7469.69
7317.98
7166.66
7015.69
6865.07
6714.77
6564.78
6415.08
6265.64
6116.46
5967.5
5818.75
5670.19
5521.82
5373.61
5225.54
5077.6
4929.78
4782.05
4634.4
4486.82
4339.29
4191.79
4044.33
3896.89
3749.47
3602.07
3454.68
3307.3
3159.92
3012.53
2865.12
2717.67
2570.17
2422.61
2274.98
2127.27
1979.48
1831.62
1683.71
1535.78
1387.83
1239.94
1092.14
944.474
797.004
649.771
502.859
356.516
209.896
69.9816
0.283104
-0.0724309
-0.243841
-0.458553
-0.654402
-0.841179
-1.02678
-1.21006
-1.39236
-1.57417
-1.75574
14650.9
14503.7
14356.5
14209.2
14061.9
13914.6
13767.2
13619.8
13472.3
13324.8
13177.2
13029.6
12881.9
12734.2
12586.4
12438.5
12290.5
12142.5
11994.4
11846.2
11697.9
11549.5
11401
11252.3
11103.6
10954.7
10805.6
10656.4
10506.9
10357.3
10207.5
10057.4
9907.08
9756.46
9605.55
9454.31
9302.72
9150.79
8998.5
8845.9
8693.01
8539.91
8386.69
8233.45
8080.3
7927.33
7774.62
7622.22
7470.15
7318.43
7167.06
7016.02
6865.3
6714.9
6564.8
6414.99
6265.44
6116.15
5967.08
5818.24
5669.59
5521.13
5372.84
5224.7
5076.7
4928.81
4781.03
4633.34
4485.72
4338.16
4190.64
4043.16
3895.71
3748.29
3600.89
3453.51
3306.13
3158.76
3011.37
2863.98
2716.55
2569.09
2421.58
2274.03
2126.43
1978.78
1831.09
1683.39
1535.7
1388.05
1240.47
1093.03
945.752
798.732
652.013
505.66
360.024
214.018
72.8884
0.369012
-0.0268893
-0.266379
-0.458595
-0.659483
-0.842625
-1.02711
-1.20978
-1.39182
-1.5735
-1.75502
14652.1
14504.9
14357.6
14210.4
14063
13915.7
13768.3
13620.8
13473.3
13325.8
13178.2
13030.5
12882.8
12735
12587.2
12439.2
12291.2
12143.1
11994.9
11846.7
11698.3
11549.8
11401.1
11252.4
11103.5
10954.4
10805.2
10655.9
10506.3
10356.5
10206.5
10056.3
9905.84
9755.09
9604.06
9452.75
9301.12
9149.19
8996.97
8844.48
8691.76
8538.88
8385.9
8232.9
8079.97
7927.18
7774.61
7622.28
7470.25
7318.52
7167.1
7016
6865.21
6714.73
6564.53
6414.62
6264.98
6115.59
5966.44
5817.51
5668.79
5520.26
5371.9
5223.7
5075.65
4927.72
4779.9
4632.18
4484.53
4336.95
4189.42
4041.94
3894.49
3747.08
3599.68
3452.31
3304.94
3157.58
3010.22
2862.84
2715.45
2568.03
2420.58
2273.11
2125.61
1978.08
1830.55
1683.03
1535.55
1388.15
1240.83
1093.69
946.752
800.108
653.815
507.925
362.871
217.492
75.7829
1.01935
-0.0977244
-0.332499
-0.477535
-0.667879
-0.846672
-1.02866
-1.21019
-1.39167
-1.57306
-1.75442
14653.3
14506.1
14358.8
14211.5
14064.2
13916.8
13769.4
13621.9
13474.4
13326.8
13179.2
13031.5
12883.8
12735.9
12588
12440.1
12292
12143.8
11995.6
11847.2
11698.7
11550.1
11401.4
11252.6
11103.5
10954.4
10805
10655.5
10505.8
10355.9
10205.8
10055.5
9904.85
9753.98
9602.86
9451.46
9299.79
9147.85
8995.66
8843.25
8690.64
8537.9
8385.07
8232.24
8079.45
7926.79
7774.3
7622.03
7470.01
7318.27
7166.82
7015.66
6864.81
6714.24
6563.97
6413.97
6264.24
6114.77
5965.55
5816.55
5667.77
5519.19
5370.78
5222.54
5074.45
4926.5
4778.66
4630.91
4483.25
4335.67
4188.14
4040.66
3893.22
3745.81
3598.43
3451.08
3303.73
3156.39
3009.05
2861.7
2714.35
2566.97
2419.59
2272.19
2124.78
1977.36
1829.97
1682.6
1535.3
1388.09
1241
1094.1
947.43
801.08
655.117
509.581
364.966
219.983
78.8717
2.97912
-0.129388
-0.342406
-0.490446
-0.673202
-0.850136
-1.03017
-1.21064
-1.39159
-1.57268
-1.75387
14654.5
14507.3
14360
14212.7
14065.4
13918
13770.6
13623.1
13475.6
13328
13180.3
13032.6
12884.8
12736.9
12589
12441
12292.8
12144.6
11996.3
11847.9
11699.3
11550.6
11401.8
11252.9
11103.8
10954.5
10805
10655.4
10505.6
10355.5
10205.3
10054.8
9904.09
9753.11
9601.89
9450.42
9298.69
9146.73
8994.54
8842.16
8689.61
8536.94
8384.21
8231.47
8078.77
7926.18
7773.74
7621.5
7469.48
7317.71
7166.22
7015.01
6864.08
6713.45
6563.1
6413.03
6263.23
6113.7
5964.41
5815.36
5666.53
5517.91
5369.47
5221.21
5073.1
4925.13
4777.28
4629.53
4481.88
4334.29
4186.78
4039.31
3891.89
3744.5
3597.14
3449.81
3302.49
3155.17
3007.86
2860.55
2713.23
2565.91
2418.57
2271.24
2123.91
1976.6
1829.31
1682.08
1534.91
1387.87
1240.94
1094.23
947.754
801.612
655.874
510.573
366.238
221.505
80.903
4.21156
-0.144283
-0.34307
-0.497195
-0.675767
-0.851836
-1.03089
-1.21071
-1.39133
-1.57222
-1.75332
14655.7
14508.5
14361.3
14214
14066.6
13919.2
13771.8
13624.3
13476.7
13329.1
13181.5
13033.7
12885.9
12738
12590
12442
12293.8
12145.5
11997.1
11848.6
11700
11551.3
11402.4
11253.3
11104.1
10954.8
10805.2
10655.5
10505.5
10355.3
10205
10054.4
9903.54
9752.46
9601.14
9449.58
9297.79
9145.78
8993.57
8841.18
8688.64
8536.01
8383.31
8230.61
8077.95
7925.38
7772.95
7620.7
7468.66
7316.85
7165.31
7014.04
6863.05
6712.34
6561.93
6411.79
6261.94
6112.35
5963.02
5813.93
5665.07
5516.42
5367.96
5219.69
5071.58
4923.61
4775.77
4628.03
4480.39
4332.83
4185.33
4037.89
3890.49
3743.13
3595.8
3448.5
3301.21
3153.92
3006.65
2859.37
2712.09
2564.81
2417.53
2270.26
2123
1975.77
1828.57
1681.43
1534.38
1387.45
1240.65
1094.06
947.706
801.686
656.064
510.864
366.628
221.971
81.4585
4.53613
-0.145734
-0.341751
-0.497614
-0.675935
-0.851503
-1.03052
-1.21014
-1.39074
-1.5716
-1.75274
14657.1
14509.9
14362.6
14215.3
14067.9
13920.5
13773.1
13625.6
13478
13330.4
13182.7
13034.9
12887.1
12739.2
12591.2
12443.1
12294.8
12146.5
11998.1
11849.6
11700.9
11552.1
11403.1
11254
11104.7
10955.2
10805.6
10655.7
10505.6
10355.4
10204.9
10054.2
9903.21
9752.02
9600.6
9448.95
9297.07
9144.99
8992.72
8840.29
8687.73
8535.07
8382.37
8229.65
8076.98
7924.39
7771.94
7619.65
7467.56
7315.7
7164.09
7012.75
6861.69
6710.92
6560.44
6410.25
6260.34
6110.71
5961.35
5812.24
5663.36
5514.7
5366.25
5217.98
5069.89
4921.93
4774.11
4626.4
4478.79
4331.26
4183.79
4036.39
3889.03
3741.71
3594.41
3447.14
3299.89
3152.64
3005.4
2858.16
2710.92
2563.69
2416.46
2269.23
2122.03
1974.86
1827.73
1680.66
1533.68
1386.83
1240.11
1093.58
947.285
801.302
655.69
510.458
366.139
221.361
80.4277
3.90582
-0.135179
-0.339518
-0.492319
-0.673742
-0.84911
-1.02905
-1.20887
-1.38978
-1.5708
-1.75214
14658.4
14511.2
14364
14216.6
14069.3
13921.9
13774.4
13626.9
13479.3
13331.7
13184
13036.2
12888.4
12740.4
12592.4
12444.2
12296
12147.7
11999.2
11850.6
11701.9
11553
11403.9
11254.7
11105.4
10955.8
10806.1
10656.1
10506
10355.6
10205
10054.2
9903.09
9751.79
9600.25
9448.49
9296.52
9144.35
8991.99
8839.49
8686.86
8534.14
8381.37
8228.61
8075.88
7923.23
7770.71
7618.35
7466.18
7314.25
7162.56
7011.14
6860.01
6709.17
6558.63
6408.38
6258.44
6108.78
5959.39
5810.27
5661.39
5512.75
5364.31
5216.07
5068
4920.09
4772.3
4624.63
4477.07
4329.58
4182.16
4034.81
3887.49
3740.22
3592.97
3445.74
3298.53
3151.32
3004.12
2856.92
2709.72
2562.53
2415.33
2268.15
2121
1973.87
1826.79
1679.77
1532.83
1386.02
1239.32
1092.81
946.506
800.482
654.784
509.399
364.838
219.769
78.0057
2.3797
-0.109861
-0.332989
-0.481968
-0.669018
-0.844958
-1.02665
-1.20703
-1.38854
-1.56984
-1.75151
14659.8
14512.6
14365.4
14218
14070.7
13923.3
13775.8
13628.3
13480.7
13333.1
13185.4
13037.6
12889.7
12741.7
12593.7
12445.5
12297.3
12148.9
12000.4
11851.7
11703
11554
11405
11255.7
11106.3
10956.6
10806.8
10656.8
10506.5
10356
10205.3
10054.4
9903.18
9751.75
9600.1
9448.22
9296.13
9143.84
8991.37
8838.75
8686.02
8533.2
8380.33
8227.46
8074.63
7921.88
7769.26
7616.79
7464.53
7312.49
7160.7
7009.19
6857.98
6707.07
6556.47
6406.18
6256.2
6106.52
5957.13
5808.01
5659.15
5510.53
5362.14
5213.94
5065.92
4918.06
4770.34
4622.73
4475.22
4327.8
4180.44
4033.14
3885.89
3738.67
3591.47
3444.29
3297.12
3149.96
3002.8
2855.64
2708.48
2561.32
2414.16
2267.02
2119.89
1972.79
1825.74
1678.74
1531.83
1385.02
1238.31
1091.77
945.396
799.266
653.407
507.775
362.856
217.353
74.8608
0.647986
-0.0717932
-0.311799
-0.468501
-0.661563
-0.839867
-1.02369
-1.2049
-1.38717
-1.56883
-1.7509
14661.3
14514.1
14366.8
14219.5
14072.1
13924.7
13777.3
13629.7
13482.2
13334.5
13186.8
13039
12891.1
12743.2
12595.1
12446.9
12298.6
12150.2
12001.7
11853
11704.2
11555.3
11406.1
11256.8
11107.3
10957.6
10807.7
10657.6
10507.3
10356.7
10205.8
10054.8
9903.48
9751.92
9600.14
9448.12
9295.88
9143.45
8990.84
8838.08
8685.2
8532.24
8379.23
8226.21
8073.24
7920.35
7767.58
7614.98
7462.57
7310.41
7158.51
7006.9
6855.59
6704.61
6553.95
6403.62
6253.62
6103.93
5954.55
5805.45
5656.62
5508.06
5359.72
5211.59
5063.64
4915.85
4768.2
4620.67
4473.24
4325.9
4178.62
4031.39
3884.21
3737.05
3589.92
3442.79
3295.68
3148.56
3001.44
2854.32
2707.2
2560.07
2412.95
2265.83
2118.72
1971.64
1824.6
1677.6
1530.67
1383.83
1237.08
1090.48
943.995
797.709
651.638
505.7
360.366
214.282
72.1871
0.294231
-0.0411245
-0.261174
-0.456925
-0.652033
-0.835399
-1.02078
-1.20295
-1.38591
-1.56789
-1.75033
14662.8
14515.6
14368.3
14221
14073.6
13926.2
13778.8
13631.3
13483.7
13336
13188.3
13040.5
12892.6
12744.7
12596.6
12448.4
12300.1
12151.7
12003.2
11854.5
11705.7
11556.7
11407.5
11258.1
11108.6
10958.8
10808.8
10658.6
10508.2
10357.5
10206.6
10055.4
9903.98
9752.29
9600.36
9448.18
9295.79
9143.19
8990.4
8837.46
8684.4
8531.25
8378.05
8224.85
8071.68
7918.6
7765.65
7612.88
7460.31
7307.99
7155.95
7004.22
6852.81
6701.75
6551.03
6400.67
6250.65
6100.97
5951.61
5802.56
5653.8
5505.29
5357.04
5208.99
5061.14
4913.45
4765.9
4618.47
4471.14
4323.89
4176.7
4029.56
3882.45
3735.37
3588.31
3441.25
3294.19
3147.12
3000.05
2852.97
2705.88
2558.78
2411.68
2264.58
2117.49
1970.41
1823.36
1676.35
1529.39
1382.5
1235.67
1088.98
942.349
795.873
649.565
503.304
357.596
211.169
70.0961
0.232832
-0.113113
-0.246362
-0.465001
-0.647117
-0.83448
-1.01886
-1.20177
-1.38498
-1.56715
-1.74984
14664.3
14517.1
14369.9
14222.6
14075.2
13927.8
13780.3
13632.8
13485.3
13337.6
13189.9
13042.1
12894.2
12746.3
12598.2
12450
12301.8
12153.3
12004.8
11856.1
11707.2
11558.2
11409
11259.6
11110
10960.2
10810.2
10659.9
10509.4
10358.6
10207.6
10056.3
9904.7
9752.86
9600.77
9448.42
9295.84
9143.04
8990.05
8836.89
8683.6
8530.22
8376.79
8223.35
8069.95
7916.64
7763.47
7610.47
7457.71
7305.21
7153.01
7001.13
6849.62
6698.47
6547.69
6397.3
6247.27
6097.61
5948.3
5799.31
5650.62
5502.22
5354.07
5206.15
5058.41
4910.85
4763.42
4616.11
4468.9
4321.76
4174.68
4027.64
3880.63
3733.64
3586.65
3439.66
3292.66
3145.65
2998.62
2851.58
2704.53
2557.46
2410.37
2263.29
2116.2
1969.12
1822.05
1675.01
1528
1381.04
1234.12
1087.29
940.505
793.812
647.257
500.67
354.637
207.961
68.4596
0.193171
-0.12643
-0.249477
-0.479212
-0.643721
-0.837423
-1.01792
-1.20149
-1.38444
-1.56668
-1.74944
14665.9
14518.7
14371.5
14224.2
14076.8
13929.4
13782
13634.5
13486.9
13339.3
13191.6
13043.8
12895.9
12748
12599.9
12451.8
12303.5
12155.1
12006.5
11857.8
11709
11559.9
11410.7
11261.3
11111.7
10961.8
10811.7
10661.4
10510.8
10359.9
10208.8
10057.3
9905.63
9753.64
9601.37
9448.83
9296.03
9143.01
8989.77
8836.36
8682.8
8529.15
8375.43
8221.7
8068.02
7914.43
7760.99
7607.74
7454.73
7302.02
7149.63
6997.6
6845.95
6694.71
6543.88
6393.46
6243.45
6093.82
5944.57
5795.67
5647.1
5498.82
5350.81
5203.03
5055.45
4908.04
4760.76
4613.6
4466.53
4319.53
4172.57
4025.65
3878.74
3731.84
3584.94
3438.02
3291.09
3144.14
2997.17
2850.17
2703.14
2556.1
2409.03
2261.96
2114.87
1967.77
1820.68
1673.59
1526.52
1379.48
1232.44
1085.47
938.511
791.578
644.754
497.815
351.416
204.379
66.6623
0.139469
-0.139544
-0.265597
-0.485824
-0.64538
-0.841117
-1.01732
-1.20213
-1.38426
-1.56648
-1.74913
14667.6
14520.4
14373.1
14225.8
14078.5
13931.1
13783.7
13636.2
13488.6
13341
13193.3
13045.6
12897.7
12749.8
12601.7
12453.6
12305.3
12156.9
12008.4
11859.7
11710.9
11561.8
11412.6
11263.2
11113.5
10963.6
10813.5
10663.1
10512.4
10361.5
10210.2
10058.7
9906.8
9754.63
9602.17
9449.42
9296.39
9143.1
8989.58
8835.87
8682
8528.02
8373.97
8219.9
8065.88
7911.95
7758.19
7604.64
7451.35
7298.38
7145.77
6993.56
6841.78
6690.43
6539.55
6389.11
6239.12
6089.55
5940.39
5791.61
5643.19
5495.08
5347.24
5199.64
5052.24
4905.01
4757.92
4610.93
4464.02
4317.18
4170.36
4023.57
3876.79
3730
3583.19
3436.36
3289.5
3142.61
2995.69
2848.73
2701.74
2554.72
2407.67
2260.6
2113.5
1966.39
1819.26
1672.12
1524.98
1377.84
1230.69
1083.56
936.408
789.221
642.096
494.76
347.826
200.237
64.0279
0.0744809
-0.144802
-0.287259
-0.486318
-0.650948
-0.842568
-1.01784
-1.20301
-1.38405
-1.56638
-1.74887
14669.3
14522.1
14374.8
14227.5
14080.2
13932.8
13785.4
13637.9
13490.4
13342.8
13195.1
13047.4
12899.6
12751.7
12603.7
12455.5
12307.3
12158.9
12010.4
11861.8
11712.9
11563.9
11414.7
11265.3
11115.6
10965.7
10815.5
10665.1
10514.3
10363.3
10211.9
10060.2
9908.21
9755.86
9603.19
9450.2
9296.9
9143.32
8989.49
8835.43
8681.2
8526.83
8372.38
8217.92
8063.49
7909.18
7755.03
7601.12
7447.5
7294.24
7141.37
6988.95
6837.01
6685.56
6534.62
6384.18
6234.24
6084.76
5935.72
5787.1
5638.86
5490.95
5343.33
5195.95
5048.78
4901.77
4754.89
4608.1
4461.39
4314.72
4168.07
4021.43
3874.78
3728.11
3581.41
3434.67
3287.89
3141.07
2994.2
2847.29
2700.33
2553.33
2406.3
2259.22
2112.11
1964.98
1817.81
1670.62
1523.41
1376.17
1228.89
1081.6
934.249
786.806
639.352
491.596
343.943
195.664
60.5335
-0.0225804
-0.141541
-0.308131
-0.485114
-0.65695
-0.842486
-1.01883
-1.20331
-1.38389
-1.56639
-1.74868
14671
14523.8
14376.5
14229.3
14081.9
13934.6
13787.2
13639.7
13492.2
13344.7
13197
13049.3
12901.5
12753.7
12605.7
12457.6
12309.4
12161.1
12012.6
11864
11715.2
11566.2
11417
11267.6
11117.9
10968
10817.8
10667.3
10516.5
10365.4
10213.9
10062.1
9909.89
9757.35
9604.45
9451.2
9297.6
9143.69
8989.49
8835.04
8680.38
8525.57
8370.67
8215.73
8060.84
7906.06
7751.46
7597.13
7443.13
7289.51
7136.36
6983.7
6831.58
6680.02
6529.03
6378.61
6228.73
6079.38
5930.52
5782.1
5634.09
5486.43
5339.07
5191.96
5045.05
4898.3
4751.67
4605.12
4458.63
4312.16
4165.7
4019.23
3872.73
3726.19
3579.61
3432.97
3286.28
3139.53
2992.72
2845.85
2698.92
2551.95
2404.92
2257.85
2110.72
1963.56
1816.35
1669.11
1521.81
1374.48
1227.08
1079.63
932.087
784.414
636.634
488.501
340.092
191.281
57.2124
-0.0827462
-0.121924
-0.323046
-0.48331
-0.659932
-0.841281
-1.01966
-1.203
-1.38373
-1.56631
-1.74851
14672.8
14525.6
14378.3
14231
14083.7
13936.4
13789
13641.6
13494.1
13346.6
13199
13051.3
12903.6
12755.7
12607.8
12459.8
12311.6
12163.4
12014.9
11866.3
11717.6
11568.6
11419.5
11270.1
11120.4
10970.5
10820.3
10669.8
10518.9
10367.7
10216.2
10064.2
9911.86
9759.11
9605.97
9452.43
9298.51
9144.22
8989.61
8834.71
8679.56
8524.24
8368.79
8213.31
8057.87
7902.55
7747.43
7592.6
7438.14
7284.12
7130.62
6977.7
6825.38
6673.71
6522.69
6372.3
6222.53
6073.34
5924.69
5776.54
5628.82
5481.47
5334.44
5187.65
5041.05
4894.61
4748.27
4601.99
4455.75
4309.52
4163.27
4016.98
3870.65
3724.26
3577.8
3431.27
3284.67
3138
2991.25
2844.42
2697.53
2550.58
2403.56
2256.48
2109.34
1962.15
1814.9
1667.6
1520.23
1372.81
1225.3
1077.71
929.998
782.126
634.046
485.702
336.571
187.61
54.6585
0.00422092
-0.107726
-0.316344
-0.477347
-0.659601
-0.839426
-1.0195
-1.20225
-1.38346
-1.56611
-1.74835
14674.6
14527.4
14380.1
14232.9
14085.6
13938.3
13790.9
13643.5
13496.1
13348.6
13201
13053.4
12905.7
12757.9
12610
12462.1
12314
12165.8
12017.4
11868.9
11720.2
11571.3
11422.2
11272.8
11123.2
10973.3
10823.1
10672.6
10521.7
10370.4
10218.7
10066.7
9914.14
9761.18
9607.78
9453.92
9299.64
9144.94
8989.86
8834.44
8678.73
8522.81
8366.74
8210.62
8054.54
7898.58
7742.85
7587.44
7432.44
7277.96
7124.06
6970.82
6818.3
6666.51
6515.47
6365.15
6215.53
6066.55
5918.19
5770.38
5623.02
5476.05
5329.39
5182.99
5036.77
4890.69
4744.68
4598.72
4452.77
4306.79
4160.78
4014.7
3868.56
3722.33
3576.01
3429.59
3283.09
3136.49
2989.81
2843.03
2696.18
2549.24
2402.23
2255.14
2107.99
1960.77
1813.48
1666.11
1518.68
1371.17
1223.57
1075.87
928.031
780.019
631.747
483.27
333.841
184.774
53.0325
0.0680079
-0.103299
-0.298889
-0.471378
-0.656497
-0.8369
-1.01845
-1.20122
-1.38297
-1.56578
-1.7482
14676.4
14529.2
14382
14234.7
14087.5
13940.2
13792.8
13645.5
13498.1
13350.6
13203.1
13055.5
12907.9
12760.2
12612.3
12464.4
12316.4
12168.3
12020
11871.6
11722.9
11574.1
11425.1
11275.8
11126.2
10976.4
10826.2
10675.7
10524.7
10373.4
10221.7
10069.5
9916.78
9763.59
9609.91
9455.71
9301.02
9145.86
8990.25
8834.24
8677.89
8521.27
8364.48
8207.62
8050.78
7894.08
7737.63
7581.53
7425.91
7270.87
7116.52
6962.93
6810.17
6658.27
6507.23
6357.03
6207.62
6058.96
5910.95
5763.54
5616.62
5470.11
5323.92
5177.98
5032.2
4886.54
4740.92
4595.32
4449.7
4304.02
4158.26
4012.42
3866.47
3720.41
3574.24
3427.95
3281.55
3135.03
2988.41
2841.69
2694.86
2547.95
2400.94
2253.85
2106.67
1959.42
1812.09
1664.68
1517.18
1369.6
1221.92
1074.14
926.215
778.128
629.773
481.251
331.855
182.651
52.2927
0.0971819
-0.099922
-0.287445
-0.46829
-0.652563
-0.83448
-1.01697
-1.20002
-1.38231
-1.56536
-1.74806
14678.2
14531
14383.8
14236.6
14089.3
13942.1
13794.8
13647.5
13500.1
13352.7
13205.2
13057.7
12910.1
12762.5
12614.8
12466.9
12319
12170.9
12022.7
11874.4
11725.9
11577.1
11428.2
11279
11129.5
10979.7
10829.6
10679.1
10528.2
10376.8
10225
10072.6
9919.79
9766.37
9612.39
9457.83
9302.7
9147.01
8990.8
8834.12
8677.03
8519.61
8361.98
8204.24
8046.52
7888.95
7731.65
7574.75
7418.39
7262.7
7107.81
6953.82
6800.81
6648.81
6497.81
6347.78
6198.66
6050.37
5902.84
5755.96
5609.59
5463.64
5318.01
5172.61
5027.35
4882.18
4737.01
4591.81
4446.56
4301.21
4155.74
4010.15
3864.42
3718.54
3572.52
3426.36
3280.07
3133.64
2987.08
2840.4
2693.61
2546.71
2399.71
2252.61
2105.41
1958.13
1810.75
1663.29
1515.75
1368.11
1220.37
1072.53
924.559
776.454
628.109
479.669
330.495
181.558
52.2117
0.103484
-0.0974989
-0.280556
-0.465416
-0.649248
-0.832543
-1.01536
-1.19887
-1.38154
-1.5649
-1.74792
14680.1
14532.9
14385.7
14238.5
14091.3
13944
13796.8
13649.5
13502.2
13354.8
13207.4
13060
12912.5
12764.9
12617.2
12469.5
12321.7
12173.7
12025.6
11877.4
11729
11580.4
11431.5
11282.4
11133
10983.3
10833.3
10682.8
10531.9
10380.6
10228.7
10076.2
9923.22
9769.57
9615.27
9460.32
9304.7
9148.43
8991.55
8834.1
8676.15
8517.81
8359.18
8200.42
8041.66
7883.07
7724.77
7566.93
7409.68
7253.22
7097.69
6943.24
6789.96
6637.88
6486.99
6337.22
6188.47
6040.71
5893.78
5747.54
5601.86
5456.59
5311.63
5166.87
5022.22
4877.61
4732.96
4588.22
4443.38
4298.39
4153.24
4007.92
3862.42
3716.74
3570.88
3424.85
3278.66
3132.32
2985.83
2839.2
2692.44
2545.55
2398.55
2251.44
2104.22
1956.9
1809.49
1661.98
1514.39
1366.7
1218.91
1071.04
923.052
774.966
626.697
478.434
329.605
181.168
52.5802
0.101647
-0.095494
-0.276579
-0.463337
-0.646564
-0.830779
-1.01383
-1.19778
-1.38079
-1.56447
-1.74779
14682
14534.8
14387.6
14240.4
14093.2
13946
13798.8
13651.5
13504.3
13357
13209.6
13062.3
12914.8
12767.4
12619.8
12472.2
12324.5
12176.6
12028.6
11880.5
11732.2
11583.8
11435.1
11286.1
11136.8
10987.3
10837.3
10686.9
10536.1
10384.8
10232.8
10080.3
9927.11
9773.22
9618.6
9463.23
9307.08
9150.17
8992.53
8834.2
8675.26
8515.83
8356.04
8196.06
8036.08
7876.27
7716.78
7557.79
7399.47
7242.04
7085.74
6930.79
6777.27
6625.16
6474.47
6325.11
6176.98
6029.87
5883.72
5738.29
5593.41
5448.94
5304.76
5160.75
5016.82
4872.86
4728.79
4584.58
4440.2
4295.61
4150.8
4005.76
3860.5
3715.02
3569.34
3423.44
3277.36
3131.1
2984.67
2838.08
2691.35
2544.47
2397.47
2250.34
2103.1
1955.75
1808.3
1660.75
1513.1
1365.37
1217.55
1069.65
921.66
773.611
625.45
477.393
328.958
181.073
53.1558
0.0976295
-0.0936592
-0.274894
-0.46154
-0.644478
-0.829257
-1.01245
-1.19676
-1.38008
-1.56405
-1.74766
14683.8
14536.6
14389.5
14242.3
14095.1
13948
13800.8
13653.6
13506.4
13359.2
13211.9
13064.6
12917.3
12769.9
12622.4
12474.9
12327.3
12179.6
12031.8
11883.8
11735.7
11587.4
11438.8
11290
11140.9
10991.5
10841.7
10691.4
10540.7
10389.4
10237.5
10084.9
9931.52
9777.39
9622.44
9466.62
9309.9
9152.28
8993.78
8834.44
8674.36
8513.65
8352.48
8191.04
8029.57
7868.23
7707.23
7546.85
7387.31
7228.82
7071.69
6916.12
6762.26
6610.15
6459.77
6310.95
6163.56
6017.41
5872.26
5727.88
5584.08
5440.66
5297.46
5154.36
5011.24
4868.01
4724.57
4580.93
4437.05
4292.89
4148.45
4003.72
3858.71
3713.44
3567.91
3422.16
3276.18
3130
2983.63
2837.08
2690.37
2543.5
2396.49
2249.34
2102.07
1954.68
1807.19
1659.59
1511.9
1364.12
1216.26
1068.33
920.339
772.325
624.27
476.376
328.307
180.914
53.6573
0.0931444
-0.0915713
-0.274158
-0.459637
-0.642919
-0.827824
-1.01122
-1.19583
-1.37944
-1.56365
-1.74752
14685.7
14538.5
14391.3
14244.2
14097.1
13949.9
13802.8
13655.7
13508.5
13361.4
13214.2
13067
12919.7
12772.5
12625.1
12477.7
12330.3
12182.7
12035
11887.2
11739.3
11591.1
11442.8
11294.2
11145.3
10996
10846.4
10696.3
10545.7
10394.5
10242.6
10090
9936.53
9782.18
9626.87
9470.58
9313.24
9154.83
8995.36
8834.87
8673.46
8511.24
8348.37
8185.06
8021.67
7858.58
7695.92
7533.83
7372.67
7212.84
7054.7
6898.46
6744.3
6592.33
6442.46
6294.44
6148.07
6003.1
5859.19
5716.14
5573.7
5431.59
5289.6
5147.59
5005.46
4863.09
4720.41
4577.39
4434.04
4290.32
4146.24
4001.83
3857.08
3712.01
3566.65
3421.02
3275.15
3129.04
2982.72
2836.2
2689.5
2542.63
2395.61
2248.44
2101.14
1953.71
1806.16
1658.51
1510.77
1362.94
1215.03
1067.06
919.053
771.04
623.036
475.218
327.424
180.355
53.798
0.0906395
-0.08923
-0.273151
-0.457689
-0.641421
-0.8264
-1.0101
-1.19493
-1.37885
-1.56326
-1.7474
14687.5
14540.4
14393.2
14246.1
14099
13951.9
13804.8
13657.7
13510.6
13363.6
13216.5
13069.3
12922.2
12775.1
12627.9
12480.6
12333.3
12185.9
12038.4
11890.8
11743
11595.1
11446.9
11298.5
11149.9
11000.8
10851.4
10701.5
10551.1
10400
10248.3
10095.7
9942.18
9787.65
9632
9475.19
9317.18
9157.9
8997.34
8835.53
8672.56
8508.5
8343.43
8177.8
8012.23
7847.09
7682.3
7518.05
7354.87
7193.4
7034.06
6877.18
6722.94
6571.37
6422.31
6275.41
6130.35
5986.81
5844.47
5703.04
5562.19
5421.62
5281.08
5140.38
4999.4
4858.07
4716.26
4573.98
4431.23
4287.99
4144.29
4000.17
3855.65
3710.78
3565.58
3420.07
3274.28
3128.24
2981.96
2835.47
2688.77
2541.9
2394.85
2247.65
2100.31
1952.83
1805.23
1657.52
1509.71
1361.82
1213.85
1065.82
917.761
769.7
621.66
473.811
326.106
179.013
53.3266
0.0908618
-0.0863946
-0.272071
-0.455688
-0.639922
-0.824984
-1.00904
-1.19406
-1.3783
-1.5629