/*--------------------------------*- C++ -*----------------------------------*\
| =========                 |                                                 |
| \\      /  F ield         | OpenFOAM: The Open Source CFD Toolbox           |
|  \\    /   O peration     | Version:  v2106                                 |
|   \\  /    A nd           | Website:  www.openfoam.com                      |
|    \\/     M anipulation  |                                                 |
\*---------------------------------------------------------------------------*/
FoamFile
{
    version     2.0;
    format      ascii;
    arch        "LSB;label=32;scalar=64";
    class       volScalarField;
    location    "1.5";
    object      p_rgh;
}
// * * * * * * * * * * * * * * * * * * * * * * * * * * * * * * * * * * * * * //

dimensions      [1 -1 -2 0 0 0 0];

internalField   nonuniform List<scalar> 
29678
(
0.476001
0.474461
0.471016
0.465225
0.457059
0.44625
0.432514
0.41563
0.395466
0.371955
0.34506
0.314746
0.280985
0.243786
0.203331
0.160316
0.114114
0.0615874
0.00204052
-0.0626382
-0.132327
-0.207969
-0.290534
-0.380979
-0.480224
-0.589716
-0.710833
-0.845503
-0.996329
-1.16689
-1.3622
-1.58952
-1.85998
-2.19183
-2.61785
-3.20264
-4.08503
-5.58511
-8.45736
-14.2128
-24.9058
-44.1965
-78.6059
-103.806
-115.095
-121.443
-125.624
-128.743
-131.242
-133.329
-135.124
-136.703
-138.099
-139.324
-140.391
-141.309
-142.082
-142.705
-143.183
-143.514
-143.701
-143.754
-143.68
-143.487
-143.184
-142.781
-142.289
-141.729
-141.144
-140.597
-140.194
-140.197
-140.829
-142.157
-142.748
-142.803
-142.353
-141.364
-140.792
-140.541
-140.481
-140.418
-140.329
-140.302
-140.576
-141.751
-144.072
-149.325
-158.822
-159.363
-160.956
-164.599
-172.32
-175.597
-181.775
-190.412
-203.397
-210.657
-61.5623
-0.0866643
-0.203327
-0.0686938
-0.076436
-0.0453645
-0.043681
-0.0333886
-0.0302363
-0.0244351
-0.0207187
-0.0182827
1.41612
1.40908
1.39501
1.37378
1.34581
1.31104
1.26916
1.21976
1.16238
1.09659
1.02197
0.938039
0.844321
0.740371
0.625924
0.500953
0.363153
0.207579
0.0340344
-0.154713
-0.359492
-0.582786
-0.827092
-1.09506
-1.38962
-1.71432
-2.0734
-2.47235
-2.91846
-3.42161
-3.99516
-4.65763
-5.43536
-6.36741
-7.51377
-8.96812
-10.8717
-13.4096
-16.7496
-21.1414
-28.1184
-42.6227
-69.2185
-93.2237
-106.122
-114.024
-119.456
-123.572
-126.861
-129.584
-131.896
-133.907
-135.681
-137.238
-138.602
-139.788
-140.807
-141.659
-142.351
-142.887
-143.271
-143.516
-143.63
-143.625
-143.512
-143.3
-142.999
-142.629
-142.226
-141.845
-141.561
-141.421
-141.861
-142.778
-143.396
-143.556
-143.28
-142.783
-142.611
-142.76
-142.92
-143.058
-143.159
-143.274
-143.506
-143.976
-146.44
-148.935
-158.058
-160.346
-161.814
-164.455
-170.606
-174.441
-179.025
-186.054
-197.527
-202.342
-70.8733
-0.131903
-0.170121
-0.090747
-0.0786658
-0.0526188
-0.0454135
-0.0346558
-0.0292324
-0.0231595
-0.0190048
-0.0163054
2.36258
2.3509
2.32765
2.29267
2.24644
2.18883
2.11947
2.03778
1.9431
1.83473
1.71187
1.57369
1.41925
1.24754
1.05753
0.847463
0.614709
0.356585
0.0729232
-0.236624
-0.574199
-0.943051
-1.34693
-1.78999
-2.27694
-2.81328
-3.40574
-4.06298
-4.7964
-5.62113
-6.55726
-7.63169
-8.88123
-10.3579
-12.1378
-14.3338
-17.1134
-20.7294
-25.6058
-32.5944
-43.0279
-57.2082
-72.9995
-87.4037
-98.4526
-106.748
-113.04
-117.993
-122.036
-125.419
-128.312
-130.823
-133.001
-134.899
-136.558
-138.003
-139.249
-140.307
-141.188
-141.902
-142.461
-142.875
-143.158
-143.32
-143.375
-143.339
-143.23
-143.076
-142.911
-142.781
-142.742
-142.857
-143.183
-143.66
-144.036
-144.181
-144.107
-143.903
-143.774
-143.764
-143.859
-144.054
-144.367
-144.858
-145.645
-146.919
-149.165
-152.054
-156.623
-159.287
-161.681
-164.783
-168.958
-172.812
-177.125
-182.085
-187.95
-192.448
-97.7848
-0.129931
-0.117624
-0.0879589
-0.0708989
-0.0513427
-0.0433249
-0.0339333
-0.0281741
-0.0231342
-0.0191419
-0.0159207
3.31923
3.30304
3.27085
3.22243
3.15839
3.07852
2.98232
2.86902
2.73773
2.58748
2.41716
2.22552
2.01119
1.77264
1.5082
1.21513
0.889753
0.530774
0.137936
-0.290596
-0.758399
-1.26981
-1.8298
-2.44386
-3.11819
-3.85998
-4.678
-5.58347
-6.59097
-7.71951
-8.99368
-10.4454
-12.1167
-14.0645
-16.3686
-19.1419
-22.5393
-26.7656
-32.0978
-38.9007
-47.3864
-57.6853
-69.8795
-82.1518
-92.6398
-101.118
-107.931
-113.488
-118.103
-121.999
-125.329
-128.21
-130.733
-132.949
-134.888
-136.581
-138.052
-139.319
-140.396
-141.296
-142.033
-142.621
-143.074
-143.404
-143.628
-143.761
-143.823
-143.836
-143.831
-143.84
-143.904
-144.032
-144.281
-144.614
-144.913
-145.102
-145.18
-145.208
-145.282
-145.442
-145.684
-146.011
-146.447
-147.039
-147.88
-149.119
-150.928
-153.264
-156.318
-158.962
-161.491
-164.261
-167.518
-170.897
-174.509
-178.399
-183.192
-186.067
-104.255
-0.161173
-0.102076
-0.0814345
-0.0668412
-0.0471029
-0.0409657
-0.0318505
-0.026323
-0.0215048
-0.0175585
-0.0142468
4.29055
4.26997
4.22903
4.16751
4.08612
3.98459
3.86229
3.71823
3.55131
3.36025
3.14364
2.89987
2.6271
2.32343
1.9865
1.613
1.19796
0.740711
0.241372
-0.303163
-0.89767
-1.54756
-2.25889
-3.03833
-3.89326
-4.8322
-5.86548
-7.00611
-8.27083
-9.68099
-11.2636
-13.0526
-15.0907
-17.4332
-20.1553
-23.358
-27.1691
-31.7401
-37.2508
-43.897
-51.8039
-61.0025
-71.2276
-81.333
-90.3967
-98.1855
-104.795
-110.411
-115.216
-119.359
-122.953
-126.096
-128.874
-131.334
-133.498
-135.4
-137.065
-138.513
-139.761
-140.825
-141.72
-142.459
-143.058
-143.531
-143.894
-144.165
-144.363
-144.51
-144.63
-144.748
-144.893
-145.098
-145.348
-145.627
-145.885
-146.08
-146.208
-146.301
-146.408
-146.567
-146.801
-147.138
-147.611
-148.268
-149.171
-150.395
-151.997
-153.96
-156.269
-158.543
-160.774
-163.141
-165.728
-168.414
-171.189
-174.016
-177.111
-179.146
-112.02
-0.170508
-0.0901719
-0.0635977
-0.0589432
-0.0388631
-0.0365596
-0.028555
-0.0239354
-0.0197957
-0.0161858
-0.0129151
5.28084
5.256
5.2066
5.13239
5.03424
4.91178
4.76427
4.59051
4.38914
4.15863
3.89726
3.60305
3.27373
2.90715
2.50013
2.0484
1.54717
0.995609
0.393682
-0.262866
-0.97965
-1.76297
-2.61979
-3.55772
-4.58508
-5.71134
-6.94784
-8.30863
-9.81152
-11.4789
-13.3384
-15.4234
-17.7741
-20.4411
-23.4912
-27.01
-31.0904
-35.8229
-41.3211
-47.6924
-54.9532
-63.0173
-71.6061
-80.1828
-88.2448
-95.5234
-101.963
-107.617
-112.577
-116.937
-120.782
-124.196
-127.24
-129.939
-132.32
-134.421
-136.27
-137.891
-139.303
-140.522
-141.566
-142.45
-143.187
-143.796
-144.291
-144.69
-145.013
-145.279
-145.509
-145.724
-145.936
-146.168
-146.421
-146.682
-146.929
-147.144
-147.328
-147.501
-147.693
-147.933
-148.241
-148.641
-149.155
-149.813
-150.661
-151.739
-153.074
-154.651
-156.435
-158.293
-160.157
-162.087
-164.098
-166.142
-168.19
-170.201
-172.199
-173.791
-118.744
-0.096079
-0.073396
-0.0370778
-0.0489462
-0.0287365
-0.0306701
-0.0245481
-0.0210461
-0.0176842
-0.014525
-0.011502
6.29418
6.26523
6.20771
6.12131
6.00706
5.86455
5.69289
5.49066
5.25628
4.98796
4.68369
4.34112
3.95766
3.53059
3.05625
2.5292
1.94569
1.30461
0.604737
-0.15907
-0.992932
-1.90381
-2.89942
-3.98804
-5.17869
-6.48143
-7.90809
-9.4731
-11.1944
-13.0942
-15.1993
-17.5406
-20.1528
-23.0782
-26.3728
-30.1077
-34.3514
-39.1515
-44.5676
-50.6542
-57.3834
-64.6496
-72.2437
-79.851
-87.1612
-93.9684
-100.174
-105.761
-110.762
-115.231
-119.225
-122.805
-126.022
-128.899
-131.458
-133.729
-135.74
-137.515
-139.073
-140.433
-141.61
-142.621
-143.481
-144.207
-144.815
-145.322
-145.747
-146.108
-146.42
-146.701
-146.968
-147.232
-147.497
-147.758
-148.005
-148.232
-148.44
-148.642
-148.859
-149.11
-149.418
-149.806
-150.294
-150.903
-151.664
-152.599
-153.713
-154.988
-156.39
-157.871
-159.346
-160.826
-162.298
-163.714
-165.041
-166.199
-167.128
-167.771
-126.285
0.013899
-0.0525899
-0.00304899
-0.036058
-0.0191888
-0.0234026
-0.0205201
-0.0182381
-0.0156848
-0.0130089
-0.010271
7.33444
7.30157
7.23628
7.13826
7.00869
6.84711
6.65251
6.42327
6.15756
5.85336
5.50834
5.11984
4.68485
4.20051
3.66149
3.06343
2.40243
1.67692
0.883953
0.018137
-0.927024
-1.95899
-3.08599
-4.31685
-5.66099
-7.12882
-8.73224
-10.4854
-12.4058
-14.5148
-16.8375
-19.4015
-22.235
-25.3703
-28.852
-32.7376
-37.0773
-41.8939
-47.2099
-53.0424
-59.3499
-66.0346
-72.9414
-79.8661
-86.604
-92.9972
-98.9499
-104.421
-109.41
-113.94
-118.043
-121.758
-125.116
-128.141
-130.853
-133.275
-135.433
-137.347
-139.039
-140.525
-141.822
-142.948
-143.917
-144.746
-145.451
-146.05
-146.56
-146.998
-147.379
-147.716
-148.027
-148.32
-148.6
-148.866
-149.117
-149.352
-149.576
-149.798
-150.033
-150.297
-150.609
-150.987
-151.446
-151.999
-152.663
-153.449
-154.352
-155.352
-156.42
-157.54
-158.633
-159.676
-160.649
-161.489
-162.16
-162.572
-162.59
-162.619
-133.185
0.11629
-0.0326243
0.0231449
-0.0196647
-0.013252
-0.0167078
-0.017025
-0.0158726
-0.01398
-0.0116939
-0.00920769
8.40525
8.36865
8.29601
8.187
8.04298
7.86345
7.64729
7.39267
7.09757
6.75969
6.37642
5.94473
5.46118
4.92246
4.32328
3.65942
2.92594
2.12082
1.23991
0.277717
-0.772498
-1.91855
-3.16906
-4.53321
-6.02072
-7.64208
-9.40891
-11.3347
-13.4358
-15.7325
-18.2484
-21.0082
-24.034
-27.3477
-30.9807
-34.9773
-39.3737
-44.1792
-49.3955
-55.0162
-60.9973
-67.2561
-73.6754
-80.1128
-86.4243
-92.4894
-98.2232
-103.577
-108.533
-113.092
-117.268
-121.082
-124.554
-127.701
-130.542
-133.095
-135.38
-137.419
-139.228
-140.827
-142.23
-143.456
-144.519
-145.436
-146.224
-146.899
-147.478
-147.975
-148.406
-148.787
-149.13
-149.444
-149.736
-150.007
-150.26
-150.498
-150.727
-150.956
-151.196
-151.457
-151.755
-152.105
-152.517
-152.997
-153.556
-154.194
-154.904
-155.664
-156.447
-157.246
-157.987
-158.63
-159.151
-159.471
-159.554
-159.316
-158.509
-157.979
-139.28
0.191101
0.0195395
0.0320655
0.00129081
-0.0106209
-0.0134605
-0.0151241
-0.0144644
-0.0128311
-0.0107025
-0.00833184
9.50997
9.46986
9.39032
9.27102
9.1135
8.91727
8.6811
8.40298
8.08065
7.71156
7.29279
6.8209
6.29218
5.70342
5.04994
4.3248
3.52375
2.64371
1.68026
0.627737
-0.520838
-1.77354
-3.13929
-4.62756
-6.24823
-8.01175
-9.9292
-12.0129
-14.2775
-16.7413
-19.4267
-22.3563
-25.5481
-29.0156
-32.7772
-36.8638
-41.3001
-46.0884
-51.2197
-56.6755
-62.4132
-68.3641
-74.4374
-80.5274
-86.5276
-92.3434
-97.9017
-103.153
-108.07
-112.642
-116.869
-120.758
-124.321
-127.571
-130.52
-133.185
-135.582
-137.729
-139.642
-141.338
-142.832
-144.142
-145.284
-146.274
-147.129
-147.864
-148.495
-149.037
-149.507
-149.919
-150.285
-150.613
-150.91
-151.182
-151.433
-151.668
-151.894
-152.119
-152.352
-152.599
-152.873
-153.184
-153.54
-153.944
-154.397
-154.897
-155.433
-155.984
-156.523
-157.027
-157.459
-157.749
-157.873
-157.743
-157.312
-156.515
-155.001
-153.857
-144.463
0.262899
0.0650805
0.00952764
0.00124869
-0.0157021
-0.0149067
-0.0154533
-0.0141907
-0.0122859
-0.0100361
-0.00761625
10.6517
10.6083
10.5223
10.3935
10.2235
10.012
9.75754
9.45798
9.11084
8.71319
8.26191
7.75325
7.1844
6.55167
5.84834
5.06598
4.20182
3.25208
2.21202
1.07565
-0.164205
-1.51584
-2.9884
-4.59152
-6.3353
-8.23011
-10.2865
-12.5153
-14.9288
-17.5427
-20.3769
-23.4528
-26.7866
-30.3865
-34.2612
-38.4285
-42.9033
-47.6833
-52.7546
-58.0933
-63.6594
-69.3952
-75.2279
-81.0755
-86.8549
-92.49
-97.9174
-103.09
-107.975
-112.555
-116.82
-120.771
-124.411
-127.748
-130.792
-133.553
-136.047
-138.287
-140.288
-142.066
-143.637
-145.017
-146.222
-147.27
-148.177
-148.955
-149.622
-150.196
-150.692
-151.123
-151.501
-151.835
-152.132
-152.399
-152.642
-152.867
-153.081
-153.293
-153.508
-153.734
-153.976
-154.244
-154.54
-154.866
-155.218
-155.592
-155.974
-156.342
-156.672
-156.93
-157.094
-157.084
-156.873
-156.367
-155.51
-154.25
-152.154
-150.383
-144.942
-0.284812
-0.00575515
-0.056593
-0.0176909
-0.0240981
-0.018953
-0.0169994
-0.0145935
-0.0121349
-0.00959059
-0.0070116
11.8331
11.7867
11.6949
11.5573
11.376
11.1507
10.8798
10.5611
10.1918
9.76847
9.28846
8.74901
8.1461
7.47278
6.72169
5.88744
4.96557
3.95209
2.84176
1.62836
0.304541
-1.13816
-2.70899
-4.41774
-6.2747
-8.29033
-10.4749
-12.8381
-15.3898
-18.1423
-21.1119
-24.3179
-27.7757
-31.4915
-35.4681
-39.713
-44.2323
-49.0203
-54.0604
-59.3269
-64.7824
-70.3772
-76.0513
-81.7381
-87.37
-92.8833
-98.2224
-103.342
-108.21
-112.801
-117.103
-121.11
-124.818
-128.233
-131.359
-134.204
-136.781
-139.1
-141.175
-143.021
-144.654
-146.088
-147.342
-148.431
-149.371
-150.177
-150.868
-151.461
-151.97
-152.408
-152.787
-153.117
-153.406
-153.661
-153.89
-154.099
-154.295
-154.485
-154.676
-154.873
-155.079
-155.3
-155.537
-155.788
-156.049
-156.31
-156.558
-156.772
-156.926
-156.982
-156.926
-156.673
-156.195
-155.395
-154.208
-152.594
-150.059
-147.892
-141.853
-0.213853
-0.0374188
-0.0664999
-0.0306025
-0.0294209
-0.022417
-0.0185103
-0.0150499
-0.0120599
-0.00920676
-0.00645876
13.0568
13.0076
12.9104
12.7649
12.5736
12.336
12.0508
11.7156
11.327
10.8827
10.3799
9.81438
9.17964
8.46817
7.67464
6.79377
5.82033
4.74949
3.57557
2.29222
0.891934
-0.633869
-2.29445
-4.09968
-6.05997
-8.18603
-10.4882
-12.9758
-15.657
-18.5404
-21.6384
-24.9667
-28.5391
-32.3616
-36.4343
-40.7578
-45.3314
-50.146
-55.1839
-60.4187
-65.8155
-71.3305
-76.9121
-82.5042
-88.0493
-93.4921
-98.7827
-103.879
-108.747
-113.361
-117.705
-121.766
-125.54
-129.026
-132.225
-135.145
-137.791
-140.176
-142.312
-144.211
-145.89
-147.364
-148.651
-149.766
-150.723
-151.543
-152.243
-152.84
-153.348
-153.781
-154.15
-154.466
-154.738
-154.974
-155.182
-155.368
-155.539
-155.703
-155.864
-156.028
-156.195
-156.369
-156.55
-156.733
-156.912
-157.077
-157.213
-157.3
-157.312
-157.209
-156.981
-156.545
-155.871
-154.863
-153.451
-151.602
-148.787
-146.37
-139.822
-0.156804
-0.0523139
-0.0671635
-0.037351
-0.0319857
-0.024117
-0.0192344
-0.0151131
-0.0118003
-0.00874861
-0.00590974
14.3246
14.2729
14.171
14.0184
13.8182
13.5701
13.2729
12.9244
12.5221
12.062
11.5398
10.9496
10.2853
9.5411
8.71115
7.78955
6.7711
5.6496
4.41914
3.07319
1.60409
0.00316999
-1.7388
-3.63166
-5.68581
-7.91207
-10.3212
-12.9226
-15.7239
-18.7315
-21.9535
-25.4014
-29.0865
-33.0141
-37.1834
-41.5909
-46.2314
-51.0931
-56.1573
-61.3978
-66.7816
-72.2688
-77.8136
-83.3666
-88.8769
-94.2951
-99.5756
-104.678
-109.569
-114.222
-118.616
-122.737
-126.577
-130.13
-133.398
-136.381
-139.088
-141.526
-143.708
-145.646
-147.357
-148.855
-150.161
-151.283
-152.243
-153.062
-153.756
-154.342
-154.836
-155.249
-155.596
-155.888
-156.134
-156.342
-156.522
-156.679
-156.82
-156.951
-157.079
-157.206
-157.333
-157.462
-157.591
-157.714
-157.824
-157.91
-157.956
-157.943
-157.848
-157.628
-157.277
-156.717
-155.919
-154.789
-153.261
-151.311
-148.397
-145.904
-139.266
-0.146213
-0.0537657
-0.0658452
-0.0377702
-0.0321538
-0.0237838
-0.0188681
-0.0145418
-0.0112067
-0.00813025
-0.00533623
15.6383
15.5843
15.4784
15.3194
15.1116
14.855
14.5498
14.1933
13.7808
13.3069
12.7665
12.155
11.4668
10.6956
9.83534
8.87951
7.82197
6.65728
5.37781
3.97693
2.44686
0.778854
-1.03637
-3.00854
-5.14788
-7.4651
-9.97118
-12.6761
-15.5879
-18.7118
-22.0534
-25.6198
-29.4192
-33.4555
-37.727
-42.2286
-46.9515
-51.8825
-57.0017
-62.2834
-67.6958
-73.2014
-78.7582
-84.3212
-89.8437
-95.2804
-100.588
-105.728
-110.667
-115.377
-119.835
-124.024
-127.933
-131.554
-134.884
-137.925
-140.682
-143.162
-145.376
-147.339
-149.066
-150.572
-151.873
-152.99
-153.939
-154.741
-155.413
-155.974
-156.437
-156.819
-157.132
-157.387
-157.597
-157.769
-157.912
-158.033
-158.138
-158.234
-158.325
-158.413
-158.501
-158.587
-158.669
-158.741
-158.795
-158.818
-158.797
-158.711
-158.541
-158.244
-157.818
-157.192
-156.34
-155.173
-153.635
-151.717
-148.886
-146.514
-140.297
-0.170333
-0.0432107
-0.0636116
-0.0324751
-0.0299608
-0.0213917
-0.0173908
-0.0132793
-0.0102512
-0.00732739
-0.00473161
16.9992
16.9433
16.8337
16.6691
16.4551
16.1942
15.8859
15.5239
15.1019
14.6161
14.0619
13.4343
12.7275
11.9353
11.0509
10.0675
8.97824
7.7764
6.45648
5.00877
3.42596
1.69909
-0.181251
-2.22479
-4.44152
-6.84188
-9.43671
-12.2365
-15.2498
-18.4824
-21.9383
-25.6221
-29.5383
-33.6892
-38.0722
-42.6806
-47.5041
-52.5277
-57.7311
-63.0884
-68.5684
-74.1353
-79.7494
-85.3679
-90.9473
-96.4441
-101.817
-107.027
-112.041
-116.829
-121.366
-125.634
-129.617
-133.306
-136.697
-139.789
-142.587
-145.097
-147.332
-149.305
-151.032
-152.529
-153.812
-154.903
-155.822
-156.589
-157.222
-157.74
-158.159
-158.495
-158.76
-158.968
-159.131
-159.257
-159.356
-159.434
-159.498
-159.554
-159.605
-159.655
-159.703
-159.75
-159.791
-159.82
-159.83
-159.808
-159.74
-159.608
-159.393
-159.055
-158.605
-157.963
-157.119
-155.993
-154.541
-152.776
-150.187
-148.106
-142.719
-0.229942
-0.0178922
-0.0570839
-0.0221243
-0.0252366
-0.0172391
-0.0149891
-0.0114363
-0.00900734
-0.00637529
-0.00410764
18.408
18.3506
18.2379
18.0685
17.8518
17.5909
17.2813
16.9144
16.4861
15.9925
15.4289
14.7902
14.0705
13.2631
12.3611
11.3571
10.2436
9.0131
7.65812
6.17373
4.54687
2.7698
0.832808
-1.27401
-3.56063
-6.0372
-8.71421
-11.6022
-14.7105
-18.0456
-21.6115
-25.4112
-29.4472
-33.7194
-38.2245
-42.9546
-47.8981
-53.0388
-58.3556
-63.8225
-69.4083
-75.0781
-80.7929
-86.5115
-92.1914
-97.7898
-103.266
-108.58
-113.698
-118.587
-123.221
-127.579
-131.644
-135.404
-138.854
-141.992
-144.822
-147.351
-149.592
-151.56
-153.272
-154.74
-155.985
-157.031
-157.901
-158.614
-159.19
-159.648
-160.006
-160.28
-160.484
-160.633
-160.737
-160.808
-160.854
-160.883
-160.901
-160.913
-160.923
-160.934
-160.945
-160.955
-160.96
-160.956
-160.933
-160.88
-160.785
-160.631
-160.4
-160.06
-159.618
-159.008
-158.229
-157.209
-155.918
-154.4
-152.169
-150.522
-145.626
-0.0209394
0.0201755
-0.0358913
-0.00865752
-0.0177813
-0.0121487
-0.0120359
-0.00930512
-0.0076413
-0.00536185
-0.0034923
19.8653
19.8068
19.6914
19.5188
19.3037
19.0452
18.7351
18.3662
17.9352
17.438
16.8697
16.2251
15.4981
14.6819
13.769
12.7515
11.6215
10.3706
8.99073
7.47311
5.81461
3.99657
2.01193
-0.149588
-2.4982
-5.04404
-7.79734
-10.7685
-13.9673
-17.401
-21.0743
-24.9899
-29.1488
-33.55
-38.1887
-43.0564
-48.1404
-53.4235
-58.8838
-64.4946
-70.2247
-76.0388
-81.898
-87.761
-93.5851
-99.3272
-104.945
-110.398
-115.649
-120.665
-125.416
-129.878
-134.033
-137.868
-141.376
-144.554
-147.408
-149.945
-152.178
-154.124
-155.804
-157.219
-158.406
-159.387
-160.186
-160.823
-161.322
-161.701
-161.98
-162.176
-162.306
-162.382
-162.417
-162.423
-162.409
-162.382
-162.348
-162.313
-162.28
-162.251
-162.226
-162.203
-162.179
-162.148
-162.103
-162.034
-161.929
-161.773
-161.553
-161.24
-160.841
-160.299
-159.63
-158.766
-157.687
-156.475
-154.659
-153.593
-143.48
0.202262
0.0508443
0.0147319
0.00291915
-0.0082518
-0.00768025
-0.00912057
-0.00735563
-0.00637759
-0.00441632
-0.00292283
21.371
21.3116
21.194
21.0213
20.8103
20.5562
20.2475
19.8801
19.4503
18.9538
18.3858
17.7406
17.0122
16.1936
15.2768
14.2535
13.115
11.8524
10.4567
8.91851
7.22814
5.38436
3.36172
1.15471
-1.24737
-3.85494
-6.67836
-9.72805
-13.0139
-16.544
-20.324
-24.3569
-28.6436
-33.1821
-37.9672
-42.9896
-48.2358
-53.6878
-59.3228
-65.1132
-71.0269
-77.0276
-83.0755
-89.1282
-95.1412
-101.07
-106.87
-112.498
-117.914
-123.083
-127.972
-132.554
-136.81
-140.724
-144.29
-147.505
-150.373
-152.905
-155.114
-157.017
-158.626
-159.98
-161.089
-161.982
-162.687
-163.226
-163.625
-163.904
-164.085
-164.187
-164.225
-164.215
-164.17
-164.101
-164.018
-163.928
-163.838
-163.752
-163.674
-163.605
-163.545
-163.493
-163.444
-163.394
-163.337
-163.263
-163.162
-163.023
-162.834
-162.575
-162.251
-161.799
-161.276
-160.602
-159.76
-158.871
-157.429
-156.706
-139.676
0.140863
-0.0211439
0.0295445
-0.00515687
-0.00333594
-0.00676133
-0.00720841
-0.00617815
-0.00544663
-0.00367927
-0.00243313
22.9244
22.8647
22.7455
22.5764
22.3711
22.1227
21.8185
21.4562
21.0317
20.5406
19.9779
19.3379
18.6143
17.7998
16.8864
15.8652
14.7267
13.4614
12.0594
10.5105
8.80428
6.92951
4.88784
2.64493
0.198493
-2.46257
-5.34918
-8.47213
-11.8417
-15.4668
-19.354
-23.5071
-27.9275
-32.6131
-37.5586
-42.7544
-48.1862
-53.8353
-59.6779
-65.6851
-71.8234
-78.0547
-84.3372
-90.6262
-96.8746
-103.035
-109.059
-114.901
-120.517
-125.868
-130.919
-135.639
-140.008
-144.008
-147.631
-150.877
-153.75
-156.262
-158.428
-160.269
-161.8
-163.052
-164.052
-164.83
-165.413
-165.829
-166.104
-166.261
-166.323
-166.311
-166.242
-166.132
-165.993
-165.839
-165.678
-165.519
-165.367
-165.227
-165.102
-164.992
-164.899
-164.819
-164.75
-164.688
-164.625
-164.556
-164.473
-164.365
-164.225
-164.036
-163.807
-163.482
-163.12
-162.663
-162.068
-161.505
-160.388
-159.914
-136.431
0.101202
-0.0344606
0.02643
-0.0193684
6.05913e-05
-0.00970403
-0.00626398
-0.00589543
-0.0049135
-0.00321538
-0.00203553
24.5245
24.4645
24.3449
24.182
23.9854
23.7438
23.4474
23.0939
22.679
22.1982
21.6462
21.0172
20.3049
19.5017
18.5992
17.5881
16.4585
15.2
13.8017
12.2526
10.5414
8.65599
6.58417
4.32738
1.84622
-0.859354
-3.80134
-6.9914
-10.4407
-14.1591
-18.1544
-22.4315
-26.9926
-31.8365
-36.9578
-42.347
-47.9895
-53.8658
-59.9509
-66.2143
-72.6204
-79.1287
-85.6943
-92.2692
-98.8025
-105.243
-111.537
-117.636
-123.491
-129.057
-134.296
-139.175
-143.669
-147.762
-151.443
-154.713
-157.579
-160.053
-162.155
-163.903
-165.326
-166.45
-167.312
-167.943
-168.375
-168.639
-168.763
-168.774
-168.695
-168.549
-168.355
-168.129
-167.884
-167.633
-167.386
-167.15
-166.931
-166.732
-166.558
-166.407
-166.281
-166.176
-166.09
-166.019
-165.959
-165.903
-165.846
-165.781
-165.702
-165.598
-165.481
-165.3
-165.114
-164.897
-164.571
-164.36
-163.609
-163.496
-132.821
0.0475
-0.0475723
0.0103114
-0.0259803
-0.00159892
-0.0133983
-0.00566512
-0.00653787
-0.00472537
-0.00300671
-0.00172333
26.1695
26.1092
25.991
25.8363
25.6501
25.4177
25.1326
24.792
24.3912
23.9257
23.3901
22.7785
22.0841
21.2994
20.4157
19.4234
18.3118
17.07
15.686
14.1479
12.4431
10.5586
8.48104
6.19675
3.70278
0.962919
-2.02554
-5.27554
-8.79956
-12.6089
-16.7128
-21.1177
-25.8272
-30.8409
-36.1545
-41.7587
-47.6387
-53.7742
-60.1391
-66.7009
-73.4213
-80.2566
-87.158
-94.0729
-100.946
-107.719
-114.336
-120.739
-126.875
-132.694
-138.152
-143.213
-147.849
-152.041
-155.779
-159.064
-161.906
-164.321
-166.334
-167.961
-169.236
-170.199
-170.886
-171.336
-171.584
-171.663
-171.607
-171.444
-171.201
-170.899
-170.561
-170.202
-169.837
-169.478
-169.135
-168.815
-168.522
-168.262
-168.035
-167.842
-167.682
-167.554
-167.454
-167.379
-167.325
-167.288
-167.265
-167.25
-167.241
-167.232
-167.235
-167.213
-167.217
-167.254
-167.229
-167.415
-167.199
-167.638
-127.594
-0.0174974
-0.0528299
-0.0113508
-0.0264744
-0.00716698
-0.0148497
-0.00618683
-0.00741511
-0.00451571
-0.00291516
-0.00146953
27.8573
27.797
27.6822
27.537
27.3627
27.1425
26.8722
26.5484
26.1664
25.7216
25.2083
24.6205
23.9512
23.1926
22.336
21.3712
20.2874
19.0725
17.714
16.1986
14.5125
12.6415
10.5706
8.28454
5.76713
3.0133
-0.0114042
-3.3128
-6.90522
-10.8019
-15.0138
-19.5497
-24.4148
-29.6106
-35.1336
-40.9754
-47.1214
-53.5508
-60.2359
-67.1421
-74.2279
-81.4454
-88.7409
-96.0562
-103.329
-110.496
-117.493
-124.255
-130.722
-136.837
-142.55
-147.82
-152.613
-156.91
-160.702
-163.99
-166.788
-169.117
-171.007
-172.473
-173.562
-174.322
-174.795
-175.023
-175.047
-174.907
-174.638
-174.272
-173.836
-173.356
-172.853
-172.344
-171.844
-171.365
-170.916
-170.503
-170.132
-169.804
-169.522
-169.286
-169.093
-168.941
-168.829
-168.753
-168.71
-168.697
-168.712
-168.753
-168.819
-168.908
-169.034
-169.176
-169.376
-169.669
-169.973
-170.58
-171.082
-172.211
-120.783
-0.114566
-0.0495677
-0.0322221
-0.0252699
-0.0131691
-0.0147677
-0.00717084
-0.00772041
-0.00435949
-0.00291805
-0.0012707
29.5851
29.5252
29.4153
29.2815
29.1208
28.9155
28.6634
28.3605
28.0022
27.5835
27.0987
26.5414
25.9046
25.1802
24.3593
23.4314
22.3853
21.2082
19.8867
18.4064
16.7523
14.9083
12.8581
10.5844
8.06929
5.29438
2.25251
-1.09008
-4.74279
-8.72136
-13.0395
-17.7083
-22.7356
-28.125
-33.875
-39.9784
-46.421
-53.1817
-60.2314
-67.5328
-75.0409
-82.7027
-90.4584
-98.2427
-105.986
-113.616
-121.059
-128.243
-135.098
-141.559
-147.568
-153.075
-158.044
-162.452
-166.291
-169.565
-172.293
-174.5
-176.21
-177.479
-178.34
-178.849
-179.058
-179.019
-178.777
-178.376
-177.857
-177.254
-176.597
-175.913
-175.223
-174.546
-173.895
-173.283
-172.717
-172.204
-171.747
-171.348
-171.009
-170.726
-170.5
-170.327
-170.205
-170.13
-170.101
-170.114
-170.171
-170.269
-170.41
-170.597
-170.844
-171.141
-171.538
-172.061
-172.691
-173.673
-174.933
-176.594
-114.016
-0.174728
-0.0299507
-0.0471342
-0.0234659
-0.0161504
-0.0135624
-0.00800339
-0.00740675
-0.00419402
-0.00283998
-0.00110683
31.3493
31.2901
31.187
31.0663
30.9209
30.7332
30.5028
30.225
29.8952
29.5082
29.0581
28.5384
27.9419
27.2601
26.484
25.6028
24.6049
23.4769
22.2047
20.7726
19.1643
17.3622
15.3479
13.1023
10.6051
7.83562
4.77255
1.4069
-2.29604
-6.34903
-10.7693
-15.5712
-20.766
-26.3603
-32.3551
-38.745
-45.5171
-52.65
-60.1134
-67.8672
-75.8619
-84.0386
-92.33
-100.662
-108.955
-117.127
-125.095
-132.774
-140.085
-146.949
-153.299
-159.077
-164.241
-168.765
-172.64
-175.877
-178.5
-180.546
-182.04
-183.041
-183.61
-183.81
-183.7
-183.338
-182.78
-182.073
-181.262
-180.386
-179.476
-178.559
-177.659
-176.793
-175.976
-175.217
-174.524
-173.902
-173.354
-172.88
-172.479
-172.15
-171.89
-171.696
-171.565
-171.494
-171.481
-171.524
-171.622
-171.777
-171.992
-172.27
-172.628
-173.062
-173.627
-174.349
-175.279
-176.473
-178.454
-180.265
-108.676
-0.0877624
-0.0157476
-0.0404242
-0.0174981
-0.0158195
-0.0117074
-0.00784303
-0.00665868
-0.00393124
-0.00264059
-0.000947621
33.1453
33.0873
32.9929
32.8868
32.7585
32.5914
32.386
32.1375
31.8411
31.4915
31.0827
30.6079
30.0595
29.4292
28.7074
27.8833
26.9447
25.8778
24.6676
23.2976
21.75
20.0055
18.0438
15.8435
13.3818
10.6351
7.57892
4.18849
0.452613
-3.66511
-8.18104
-13.1142
-18.48
-24.2893
-30.5466
-37.2493
-44.3861
-51.9361
-59.8678
-68.1384
-76.693
-85.4657
-94.3801
-103.351
-112.287
-121.095
-129.677
-137.937
-145.781
-153.118
-159.864
-165.951
-171.328
-175.968
-179.863
-183.03
-185.504
-187.332
-188.54
-189.209
-189.418
-189.239
-188.743
-187.997
-187.064
-185.998
-184.849
-183.658
-182.459
-181.28
-180.145
-179.07
-178.069
-177.15
-176.32
-175.581
-174.936
-174.383
-173.919
-173.543
-173.249
-173.035
-172.897
-172.831
-172.836
-172.909
-173.05
-173.26
-173.543
-173.902
-174.355
-174.902
-175.595
-176.456
-177.578
-178.905
-181.184
-183.101
-105.361
-0.0239829
-0.0113206
-0.0229726
-0.0115311
-0.0127151
-0.00918078
-0.00678912
-0.00562988
-0.00343882
-0.00230636
-0.000795983
34.9681
34.912
34.8278
34.7377
34.6284
34.485
34.3082
34.0932
33.8351
33.5285
33.1674
32.7448
32.253
31.6832
31.0258
30.2696
29.402
28.4088
27.2744
25.9811
24.5099
22.84
20.949
18.8128
16.4061
13.7019
10.6719
7.28717
3.51813
-0.647805
-5.25045
-10.3102
-15.8484
-21.8814
-28.4186
-35.4611
-43.0003
-51.0166
-59.4778
-68.3381
-77.537
-86.9998
-96.6391
-106.356
-116.045
-125.596
-134.899
-143.842
-152.313
-160.202
-167.409
-173.847
-179.458
-184.21
-188.101
-191.154
-193.417
-194.927
-195.786
-196.047
-195.812
-195.172
-194.211
-193.007
-191.632
-190.148
-188.608
-187.056
-185.53
-184.058
-182.661
-181.356
-180.154
-179.063
-178.086
-177.224
-176.477
-175.841
-175.313
-174.888
-174.562
-174.329
-174.185
-174.127
-174.15
-174.254
-174.437
-174.7
-175.044
-175.473
-176.002
-176.633
-177.41
-178.347
-179.552
-180.924
-183.17
-185.224
-103.876
0.00519497
-0.00795044
-0.0115362
-0.00844629
-0.00878234
-0.00676135
-0.00531262
-0.00442789
-0.0027819
-0.00189422
-0.000650983
36.8123
36.759
36.6861
36.6133
36.525
36.4083
36.2636
36.0861
35.8711
35.6133
35.3064
34.9434
34.5164
34.0166
33.4338
32.7568
31.9727
31.0667
30.0225
28.8216
27.4438
25.8667
24.0657
22.0145
19.6844
17.0448
14.0634
10.7061
6.93807
2.72363
-1.95009
-7.12891
-12.8378
-19.1014
-25.9349
-33.3446
-41.3264
-49.863
-58.9223
-68.4555
-78.3961
-88.6595
-99.1441
-109.734
-120.304
-130.727
-140.876
-150.622
-159.833
-168.374
-176.118
-182.958
-188.822
-193.676
-197.523
-200.401
-202.38
-203.51
-203.89
-203.631
-202.847
-201.647
-200.128
-198.381
-196.486
-194.514
-192.524
-190.563
-188.668
-186.868
-185.183
-183.627
-182.21
-180.934
-179.802
-178.811
-177.958
-177.238
-176.644
-176.172
-175.813
-175.563
-175.416
-175.367
-175.411
-175.546
-175.77
-176.081
-176.479
-176.968
-177.555
-178.243
-179.065
-180.021
-181.216
-182.506
-184.53
-186.317
-103.734
0.0115061
-0.00552754
-0.00464817
-0.00557187
-0.00546565
-0.00482432
-0.00369896
-0.00327327
-0.00201367
-0.00143138
-0.000516568
38.6721
38.6222
38.562
38.5073
38.4422
38.3549
38.2456
38.1097
37.9425
37.7389
37.4926
37.1966
36.8428
36.4223
35.9249
35.3388
34.651
33.8463
32.9078
31.8161
30.5499
29.0853
27.3957
25.452
23.2225
20.6727
17.7654
14.4613
10.719
6.49572
1.74803
-3.53495
-9.40869
-15.9079
-23.0526
-30.8569
-39.3239
-48.4396
-58.1739
-68.4757
-79.2717
-90.4661
-101.94
-113.556
-125.161
-136.607
-147.752
-158.448
-168.542
-177.865
-186.246
-193.541
-199.669
-204.6
-208.342
-210.961
-212.57
-213.18
-212.962
-212.048
-210.587
-208.706
-206.518
-204.126
-201.621
-199.083
-196.578
-194.153
-191.846
-189.683
-187.683
-185.857
-184.209
-182.739
-181.445
-180.321
-179.36
-178.555
-177.897
-177.378
-176.99
-176.725
-176.576
-176.538
-176.606
-176.773
-177.036
-177.393
-177.841
-178.379
-179.011
-179.737
-180.573
-181.509
-182.628
-183.741
-185.421
-186.707
-104.491
0.00967513
-0.00352056
-0.000671927
-0.00349374
-0.00278307
-0.00306066
-0.00217873
-0.00218979
-0.0012553
-0.000999363
-0.000388212
40.5407
40.4947
40.4484
40.4131
40.3731
40.3177
40.247
40.1565
40.0417
39.8976
39.7181
39.4961
39.2239
38.8921
38.4906
38.0075
37.4293
36.7407
35.9241
34.9595
33.8244
32.4936
30.9384
29.1274
27.0252
24.5935
21.7899
18.5691
14.8824
10.6786
5.90508
0.507015
-5.51232
-12.2521
-19.7208
-27.9462
-36.9423
-46.7017
-57.1977
-68.3778
-80.1627
-92.4446
-105.084
-117.912
-130.74
-143.402
-155.749
-167.591
-178.764
-189.043
-198.193
-205.993
-212.367
-217.324
-220.865
-223.079
-224.062
-224.026
-223.026
-221.299
-219.035
-216.357
-213.39
-210.248
-207.031
-203.838
-200.743
-197.794
-195.027
-192.467
-190.127