/*--------------------------------*- C++ -*----------------------------------*\
| =========                 |                                                 |
| \\      /  F ield         | OpenFOAM: The Open Source CFD Toolbox           |
|  \\    /   O peration     | Version:  v2106                                 |
|   \\  /    A nd           | Website:  www.openfoam.com                      |
|    \\/     M anipulation  |                                                 |
\*---------------------------------------------------------------------------*/
FoamFile
{
    version     2.0;
    format      ascii;
    arch        "LSB;label=32;scalar=64";
    class       surfaceScalarField;
    location    "1.5";
    object      phi;
}
// * * * * * * * * * * * * * * * * * * * * * * * * * * * * * * * * * * * * * //

dimensions      [0 3 -1 0 0 0 0];

oriented        oriented;

internalField   nonuniform List<scalar> 
59425
(
-1.52604e-08
-1.01922e-05
-2.91143e-08
-1.03035e-05
-4.09994e-08
-1.03082e-05
-5.11459e-08
-1.03036e-05
-6.00553e-08
-1.02967e-05
-6.80487e-08
-1.02893e-05
-7.52498e-08
-1.02818e-05
-8.1642e-08
-1.02743e-05
-8.71258e-08
-1.02667e-05
-9.15656e-08
-1.02585e-05
-9.48229e-08
-1.02488e-05
-9.67772e-08
-1.02369e-05
-9.73338e-08
-1.02219e-05
-9.6427e-08
-1.02028e-05
-9.40279e-08
-1.01787e-05
-9.01393e-08
-1.01486e-05
-8.47277e-08
-1.01118e-05
-7.78198e-08
-1.00668e-05
-6.95487e-08
-1.00125e-05
-5.98647e-08
-9.9477e-06
-4.85776e-08
-9.87108e-06
-3.55301e-08
-9.78132e-06
-2.05791e-08
-9.67703e-06
-3.58197e-09
-9.55664e-06
1.56104e-08
-9.41848e-06
3.71284e-08
-9.26067e-06
6.11514e-08
-9.08122e-06
8.78699e-08
-8.87786e-06
1.1752e-07
-8.64805e-06
1.50403e-07
-8.38883e-06
1.86955e-07
-8.09675e-06
2.27835e-07
-7.76765e-06
2.74127e-07
-7.39638e-06
3.27788e-07
-6.97647e-06
3.92675e-07
-6.49958e-06
4.77162e-07
-5.95517e-06
6.00918e-07
-5.3309e-06
8.10964e-07
-4.61486e-06
1.20482e-06
-3.78915e-06
1.93727e-06
-2.78766e-06
3.2433e-06
-1.46021e-06
5.37465e-06
2.89951e-07
7.49351e-06
6.99863e-07
8.62676e-06
-4.26795e-07
9.20314e-06
-1.47561e-06
9.52235e-06
-2.24215e-06
9.70283e-06
-2.80785e-06
9.7951e-06
-3.23515e-06
9.82602e-06
-3.5593e-06
9.81294e-06
-3.80138e-06
9.76472e-06
-3.97934e-06
9.6839e-06
-4.10644e-06
9.57284e-06
-4.1865e-06
9.43384e-06
-4.22741e-06
9.2677e-06
-4.23794e-06
9.07412e-06
-4.222e-06
8.85069e-06
-4.18281e-06
8.59955e-06
-4.11637e-06
8.32182e-06
-4.02341e-06
8.02008e-06
-3.90241e-06
7.7018e-06
-3.74865e-06
7.36926e-06
-3.56771e-06
7.02436e-06
-3.36112e-06
6.67085e-06
-3.12764e-06
6.30925e-06
-2.87058e-06
5.94167e-06
-2.58757e-06
5.58063e-06
-2.26631e-06
5.24485e-06
-1.90035e-06
4.95548e-06
-1.49103e-06
4.73762e-06
-1.04357e-06
4.62419e-06
-5.74527e-07
4.63428e-06
-8.9906e-08
4.76179e-06
3.27678e-07
4.77422e-06
4.65552e-07
4.68737e-06
4.85155e-07
4.57336e-06
5.14151e-07
4.48845e-06
5.59957e-07
4.41555e-06
4.84537e-07
4.16953e-06
2.35682e-07
3.77466e-06
-3.77875e-08
3.25444e-06
-2.54005e-07
2.64472e-06
-4.08048e-07
1.97464e-06
-4.83273e-07
1.27803e-06
-4.63054e-07
6.1115e-07
-3.2408e-07
7.30659e-08
-1.38446e-08
-1.0061e-07
5.37526e-07
6.04578e-08
1.16181e-06
-1.84271e-07
9.64902e-07
-7.80574e-07
4.92358e-07
-1.24897e-06
5.31918e-07
-1.25612e-06
1.08851e-06
-1.59963e-06
9.46113e-07
-1.91689e-06
7.3442e-07
-1.88484e-06
1.04233e-06
-1.87315e-06
8.4639e-07
-1.35321e-06
3.8894e-07
7.55616e-08
-2.84266e-07
-2.67666e-05
-2.73829e-05
-2.86252e-05
-5.71345e-06
-1.90938e-05
-7.12432e-06
-1.75827e-05
-1.89364e-05
-2.19577e-05
-2.05969e-05
-2.22146e-05
-1.38705e-05
-2.36258e-05
-1.20862e-05
-2.34317e-05
-7.98356e-06
-2.32802e-05
-5.61909e-06
-2.20446e-05
-2.62476e-06
-2.09107e-05
-1.1495e-06
-5.30965e-07
-1.22042e-08
-1.018e-05
-2.39417e-08
-1.02918e-05
-3.45222e-08
-1.02977e-05
-4.38473e-08
-1.02943e-05
-5.19902e-08
-1.02886e-05
-5.90162e-08
-1.02822e-05
-6.49115e-08
-1.02759e-05
-6.95943e-08
-1.02696e-05
-7.29443e-08
-1.02634e-05
-7.48284e-08
-1.02566e-05
-7.51169e-08
-1.02485e-05
-7.36894e-08
-1.02384e-05
-7.04359e-08
-1.02252e-05
-6.52584e-08
-1.0208e-05
-5.80802e-08
-1.01859e-05
-4.88401e-08
-1.01579e-05
-3.73977e-08
-1.01232e-05
-2.35685e-08
-1.00806e-05
-7.19087e-09
-1.00289e-05
1.19585e-08
-9.96685e-06
3.41422e-08
-9.89326e-06
5.9601e-08
-9.80678e-06
8.8579e-08
-9.70601e-06
1.21341e-07
-9.5894e-06
1.58179e-07
-9.45532e-06
1.99437e-07
-9.30193e-06
2.455e-07
-9.12728e-06
2.96849e-07
-8.92921e-06
3.54099e-07
-8.7053e-06
4.18073e-07
-8.4528e-06
4.89903e-07
-8.16858e-06
5.71219e-07
-7.84896e-06
6.64466e-07
-7.48963e-06
7.73412e-07
-7.08542e-06
9.03976e-07
-6.63015e-06
1.06529e-06
-6.11648e-06
1.27013e-06
-5.53573e-06
1.53201e-06
-4.87674e-06
1.86437e-06
-4.12149e-06
2.33236e-06
-3.25559e-06
3.21739e-06
-2.34522e-06
5.06479e-06
-1.55752e-06
7.04073e-06
-1.27611e-06
8.24439e-06
-1.63044e-06
8.92469e-06
-2.15591e-06
9.33371e-06
-2.65118e-06
9.59215e-06
-3.06629e-06
9.74893e-06
-3.39193e-06
9.83167e-06
-3.64204e-06
9.85896e-06
-3.82866e-06
9.84205e-06
-3.96243e-06
9.78801e-06
-4.05241e-06
9.70245e-06
-4.10094e-06
9.58894e-06
-4.1139e-06
9.44838e-06
-4.09738e-06
9.27992e-06
-4.05354e-06
9.08146e-06
-3.98435e-06
8.85472e-06
-3.88964e-06
8.60113e-06
-3.76981e-06
8.32326e-06
-3.62454e-06
8.02757e-06
-3.45296e-06
7.71671e-06
-3.25684e-06
7.39273e-06
-3.03715e-06
7.05909e-06
-2.794e-06
6.71649e-06
-2.52798e-06
6.36648e-06
-2.23756e-06
6.01917e-06
-1.91901e-06
5.68999e-06
-1.57116e-06
5.39632e-06
-1.19737e-06
5.15818e-06
-8.05428e-07
4.99335e-06
-4.09693e-07
4.93577e-06
-3.23249e-08
4.98239e-06
2.81058e-07
4.97395e-06
4.73994e-07
4.88742e-06
5.71686e-07
4.78204e-06
6.19531e-07
4.70027e-06
6.41729e-07
4.57808e-06
6.0673e-07
4.31735e-06
4.96409e-07
3.91668e-06
3.6289e-07
3.41736e-06
2.45309e-07
2.84149e-06
1.67834e-07
2.21111e-06
1.47111e-07
1.55166e-06
1.96391e-07
8.99107e-07
3.28487e-07
3.30794e-07
5.54489e-07
3.5196e-09
8.64798e-07
-8.559e-09
1.17388e-06
-1.74648e-07
1.131e-06
-6.74857e-07
9.92583e-07
-1.18545e-06
1.04251e-06
-1.33552e-06
1.23858e-06
-1.61859e-06
1.22919e-06
-2.02416e-06
1.14e-06
-2.16562e-06
1.18378e-06
-2.29722e-06
9.77996e-07
-1.89488e-06
-1.34048e-08
-5.70205e-07
-1.60895e-06
-2.26253e-05
-5.32774e-06
-2.56261e-05
-2.71269e-06
-1.75057e-05
-1.52448e-05
-1.60751e-05
-2.03669e-05
-1.96514e-05
-1.70206e-05
-2.01439e-05
-1.33781e-05
-2.12894e-05
-1.09407e-05
-2.13264e-05
-7.94649e-06
-2.1217e-05
-5.72855e-06
-2.03102e-05
-3.53155e-06
-1.94407e-05
-2.01898e-06
-9.25592e-07
-1.07172e-08
-1.01693e-05
-2.12005e-08
-1.02813e-05
-3.07351e-08
-1.02881e-05
-3.9166e-08
-1.02858e-05
-4.63883e-08
-1.02814e-05
-5.22762e-08
-1.02763e-05
-5.66785e-08
-1.02715e-05
-5.94377e-08
-1.02669e-05
-6.04031e-08
-1.02624e-05
-5.94331e-08
-1.02575e-05
-5.63875e-08
-1.02516e-05
-5.11182e-08
-1.02436e-05
-4.34618e-08
-1.02328e-05
-3.32375e-08
-1.02182e-05
-2.02467e-08
-1.01989e-05
-4.23787e-09
-1.01739e-05
1.50686e-08
-1.01425e-05
3.79314e-08
-1.01035e-05
6.45844e-08
-1.00555e-05
9.52554e-08
-9.99752e-06
1.30273e-07
-9.92828e-06
1.69986e-07
-9.8465e-06
2.14759e-07
-9.75078e-06
2.64994e-07
-9.63964e-06
3.21138e-07
-9.51146e-06
3.83705e-07
-9.3645e-06
4.53291e-07
-9.19687e-06
5.30634e-07
-9.00655e-06
6.16668e-07
-8.79133e-06
7.1262e-07
-8.54875e-06
8.20143e-07
-8.2761e-06
9.41543e-07
-7.97036e-06
1.08011e-06
-7.6282e-06
1.24064e-06
-7.24595e-06
1.43021e-06
-6.81971e-06
1.65935e-06
-6.34562e-06
1.94411e-06
-5.82049e-06
2.31063e-06
-5.24329e-06
2.80867e-06
-4.61955e-06
3.52574e-06
-3.97279e-06
4.52224e-06
-3.34183e-06
5.73045e-06
-2.76565e-06
6.91035e-06
-2.45597e-06
7.81829e-06
-2.53838e-06
8.47231e-06
-2.80995e-06
8.93236e-06
-3.11124e-06
9.25069e-06
-3.38461e-06
9.46933e-06
-3.61057e-06
9.61376e-06
-3.78646e-06
9.69985e-06
-3.91476e-06
9.73742e-06
-4.00001e-06
9.73066e-06
-4.04566e-06
9.68481e-06
-4.05508e-06
9.60429e-06
-4.03338e-06
9.49063e-06
-3.98372e-06
9.34515e-06
-3.90806e-06
9.16924e-06
-3.80845e-06
8.96515e-06
-3.68555e-06
8.73521e-06
-3.53987e-06
8.48227e-06
-3.3716e-06
8.21018e-06
-3.18087e-06
7.92205e-06
-2.96871e-06
7.62092e-06
-2.73601e-06
7.31027e-06
-2.48335e-06
6.99368e-06
-2.21139e-06
6.67614e-06
-1.92002e-06
6.36565e-06
-1.60852e-06
6.07233e-06
-1.27784e-06
5.80703e-06
-9.32067e-07
5.5805e-06
-5.78892e-07
5.40146e-06
-2.30658e-07
5.27459e-06
9.45423e-08
5.18262e-06
3.73024e-07
5.08151e-06
5.75112e-07
4.94769e-06
7.05508e-07
4.78204e-06
7.85182e-07
4.5878e-06
8.35971e-07
4.34881e-06
8.45727e-07
4.03836e-06
8.06862e-07
3.65519e-06
7.46057e-07
3.20915e-06
6.91356e-07
2.71475e-06
6.62242e-07
2.18915e-06
6.72718e-07
1.65314e-06
7.32403e-07
1.13469e-06
8.46939e-07
6.74695e-07
1.01445e-06
3.20007e-07
1.2195e-06
8.29562e-08
1.41095e-06
-2.42288e-07
1.45625e-06
-6.8109e-07
1.43137e-06
-1.0944e-06
1.45582e-06
-1.38979e-06
1.53398e-06
-1.7135e-06
1.55289e-06
-2.0772e-06
1.5037e-06
-2.36585e-06
1.47243e-06
-2.68782e-06
1.29996e-06
-3.19327e-06
4.92067e-07
-3.85728e-06
-9.44935e-07
-6.25537e-06
-2.92966e-06
-7.37504e-06
-1.59294e-06
-1.11184e-05
-1.15014e-05
-1.2907e-05
-1.85783e-05
-1.54951e-05
-1.44325e-05
-1.6869e-05
-1.20042e-05
-1.81375e-05
-9.67226e-06
-1.87115e-05
-7.37244e-06
-1.898e-05
-5.46005e-06
-1.88478e-05
-3.66372e-06
-1.86259e-05
-2.24094e-06
-1.08135e-06
-1.0282e-08
-1.0159e-05
-2.04264e-08
-1.02712e-05
-2.96257e-08
-1.02789e-05
-3.76577e-08
-1.02778e-05
-4.43104e-08
-1.02747e-05
-4.93405e-08
-1.02713e-05
-5.2512e-08
-1.02683e-05
-5.36232e-08
-1.02658e-05
-5.2506e-08
-1.02635e-05
-4.90024e-08
-1.0261e-05
-4.29395e-08
-1.02576e-05
-3.41119e-08
-1.02525e-05
-2.2277e-08
-1.02447e-05
-7.15273e-09
-1.02334e-05
1.15906e-08
-1.02176e-05
3.42399e-08
-1.01965e-05
6.1076e-08
-1.01693e-05
9.24269e-08
-1.01348e-05
1.28652e-07
-1.00918e-05
1.70142e-07
-1.0039e-05
2.17313e-07
-9.97545e-06
2.70609e-07
-9.89979e-06
3.30497e-07
-9.81067e-06
3.97498e-07
-9.70664e-06
4.72186e-07
-9.58615e-06
5.55218e-07
-9.44753e-06
6.47358e-07
-9.28901e-06
7.4953e-07
-9.10873e-06
8.62881e-07
-8.90469e-06
9.88888e-07
-8.67476e-06
1.1295e-06
-8.41671e-06
1.28734e-06
-8.12821e-06
1.46603e-06
-7.80689e-06
1.67056e-06
-7.45048e-06
1.90792e-06
-7.05707e-06
2.18786e-06
-6.62555e-06
2.52391e-06
-6.15656e-06
2.93464e-06
-5.65405e-06
3.44323e-06
-5.12808e-06
4.06925e-06
-4.5987e-06
4.82436e-06
-4.0969e-06
5.72602e-06
-3.66728e-06
6.6861e-06
-3.41608e-06
7.52669e-06
-3.379e-06
8.18714e-06
-3.4704e-06
8.68658e-06
-3.61067e-06
9.05717e-06
-3.75519e-06
9.32754e-06
-3.88093e-06
9.51868e-06
-3.97762e-06
9.64558e-06
-4.04166e-06
9.71816e-06
-4.0726e-06
9.74339e-06
-4.07088e-06
9.72704e-06
-4.03872e-06
9.6738e-06
-3.98014e-06
9.58637e-06
-3.89629e-06
9.46663e-06
-3.78832e-06
9.31621e-06
-3.65803e-06
9.13712e-06
-3.50646e-06
8.93167e-06
-3.33442e-06
8.70263e-06
-3.14256e-06
8.45334e-06
-2.93158e-06
8.18705e-06
-2.70243e-06
7.90697e-06
-2.45593e-06
7.61652e-06
-2.19291e-06
7.31933e-06
-1.9142e-06
7.0199e-06
-1.62059e-06
6.72443e-06
-1.31305e-06
6.44048e-06
-9.93891e-07
6.17595e-06
-6.67529e-07
5.93775e-06
-3.4069e-07
5.72871e-06
-2.16129e-08
5.55262e-06
2.70636e-07
5.39998e-06
5.25664e-07
5.2469e-06
7.282e-07
5.07665e-06
8.75764e-07
4.88178e-06
9.80048e-07
4.66197e-06
1.05579e-06
4.4056e-06
1.1021e-06
4.09415e-06
1.11832e-06
3.72235e-06
1.11786e-06
3.29591e-06
1.1178e-06
2.82592e-06
1.13224e-06
2.32738e-06
1.17126e-06
1.81858e-06
1.24121e-06
1.3216e-06
1.34395e-06
8.61223e-07
1.47485e-06
4.60231e-07
1.6205e-06
1.19342e-07
1.75184e-06
-2.37473e-07
1.81308e-06
-6.38102e-07
1.832e-06
-1.03921e-06
1.85694e-06
-1.39502e-06
1.88981e-06
-1.73801e-06
1.89589e-06
-2.08755e-06
1.85326e-06
-2.41028e-06
1.79518e-06
-2.71532e-06
1.605e-06
-3.18058e-06
9.57325e-07
-3.82413e-06
-3.01382e-07
-5.06448e-06
-1.68931e-06
-4.86621e-06
-1.79118e-06
-7.56574e-06
-8.8019e-06
-1.04929e-05
-1.56512e-05
-1.28194e-05
-1.2106e-05
-1.46858e-05
-1.01377e-05
-1.5994e-05
-8.36406e-06
-1.67997e-05
-6.56669e-06
-1.72479e-05
-5.01184e-06
-1.73451e-05
-3.56656e-06
-1.72833e-05
-2.30272e-06
-1.14513e-06
-1.04351e-08
-1.01486e-05
-2.08537e-08
-1.02608e-05
-3.03236e-08
-1.02695e-05
-3.85013e-08
-1.02696e-05
-4.50509e-08
-1.02682e-05
-4.96341e-08
-1.02667e-05
-5.19664e-08
-1.0266e-05
-5.18333e-08
-1.02659e-05
-4.90592e-08
-1.02663e-05
-4.34591e-08
-1.02666e-05
-3.48043e-08
-1.02663e-05
-2.2812e-08
-1.02644e-05
-7.15249e-09
-1.02603e-05
1.25589e-08
-1.02531e-05
3.66968e-08
-1.02418e-05
6.56702e-08
-1.02255e-05
9.96919e-08
-1.02034e-05
1.39157e-07
-1.01743e-05
1.8459e-07
-1.01372e-05
2.36496e-07
-1.00909e-05
2.95403e-07
-1.00344e-05
3.61859e-07
-9.96625e-06
4.36439e-07
-9.88524e-06
5.19752e-07
-9.78995e-06
6.12462e-07
-9.67886e-06
7.15321e-07
-9.55039e-06
8.29208e-07
-9.4029e-06
9.55154e-07
-9.23467e-06
1.09441e-06
-9.04394e-06
1.24856e-06
-8.82891e-06
1.41963e-06
-8.58778e-06
1.61029e-06
-8.31886e-06
1.82403e-06
-8.02063e-06
2.06548e-06
-7.69193e-06
2.34073e-06
-7.33231e-06
2.6577e-06
-6.9425e-06
3.02646e-06
-6.52529e-06
3.45915e-06
-6.08667e-06
3.96862e-06
-5.63749e-06
4.56513e-06
-5.19523e-06
5.25312e-06
-4.78493e-06
6.02569e-06
-4.43988e-06
6.81186e-06
-4.20227e-06
7.51837e-06
-4.0855e-06
8.10845e-06
-4.06046e-06
8.58386e-06
-4.08608e-06
8.95835e-06
-4.12968e-06
9.24731e-06
-4.1699e-06
9.46401e-06
-4.19432e-06
9.61866e-06
-4.19632e-06
9.71834e-06
-4.17228e-06
9.76892e-06
-4.12145e-06
9.77723e-06
-4.04703e-06
9.7478e-06
-3.95071e-06
9.68284e-06
-3.83134e-06
9.58447e-06
-3.68996e-06
9.45464e-06
-3.52821e-06
9.29553e-06
-3.34735e-06
9.10954e-06
-3.14843e-06
8.89934e-06
-2.93236e-06
8.66785e-06
-2.70009e-06
8.4181e-06
-2.45267e-06
8.15333e-06
-2.19117e-06
7.87709e-06
-1.91666e-06
7.59321e-06
-1.63032e-06
7.30608e-06
-1.33345e-06
7.0208e-06
-1.02777e-06
6.7429e-06
-7.15987e-07
6.47786e-06
-4.02487e-07
6.23093e-06
-9.37464e-08
6.00574e-06
2.03571e-07
5.79672e-06
4.79666e-07
5.5981e-06
7.24283e-07
5.39674e-06
9.29564e-07
5.17875e-06
1.09376e-06
4.93607e-06
1.22272e-06
4.66769e-06
1.32417e-06
4.36949e-06
1.40031e-06
4.03404e-06
1.45377e-06
3.65871e-06
1.4932e-06
3.24672e-06
1.52981e-06
2.80547e-06
1.57349e-06
2.34536e-06
1.63139e-06
1.87901e-06
1.70758e-06
1.42041e-06
1.80256e-06
9.83089e-07
1.91219e-06
5.77049e-07
2.02655e-06
1.98945e-07
2.12997e-06
-1.84643e-07
2.19669e-06
-5.87621e-07
2.235e-06
-9.93988e-07
2.26333e-06
-1.38214e-06
2.27797e-06
-1.76042e-06
2.27418e-06
-2.13569e-06
2.22854e-06
-2.50479e-06
2.16428e-06
-2.8753e-06
1.97552e-06
-3.36602e-06
1.44804e-06
-3.97205e-06
3.04652e-07
-4.596e-06
-1.06537e-06
-1.13724e-06
-5.24995e-06
-3.47667e-06
-6.46248e-06
-8.21066e-06
-1.09172e-05
-1.04731e-05
-9.84358e-06
-1.27454e-05
-7.86538e-06
-1.41521e-05
-6.95739e-06
-1.51356e-05
-5.58312e-06
-1.57457e-05
-4.40175e-06
-1.60543e-05
-3.25793e-06
-1.61755e-05
-2.18156e-06
-1.12122e-06
-1.11008e-08
-1.01375e-05
-2.22881e-08
-1.02496e-05
-3.25027e-08
-1.02592e-05
-4.12707e-08
-1.02609e-05
-4.81265e-08
-1.02613e-05
-5.26522e-08
-1.02622e-05
-5.45428e-08
-1.02641e-05
-5.35878e-08
-1.02669e-05
-4.95987e-08
-1.02703e-05
-4.23425e-08
-1.02739e-05
-3.15141e-08
-1.02771e-05
-1.67422e-08
-1.02792e-05
2.39434e-09
-1.02795e-05
2.63281e-08
-1.0277e-05
5.55338e-08
-1.0271e-05
9.03829e-08
-1.02604e-05
1.31141e-07
-1.02441e-05
1.78343e-07
-1.02215e-05
2.32629e-07
-1.01915e-05
2.94626e-07
-1.01529e-05
3.6495e-07
-1.01047e-05
4.4424e-07
-1.00455e-05
5.33154e-07
-9.97416e-06
6.32352e-07
-9.88914e-06
7.42536e-07
-9.78904e-06
8.64506e-07
-9.67236e-06
9.99193e-07
-9.53759e-06
1.14767e-06
-9.38316e-06
1.31124e-06
-9.2075e-06
1.49145e-06
-9.00912e-06
1.69029e-06
-8.78662e-06
1.9102e-06
-8.53878e-06
2.1543e-06
-8.26474e-06
2.42651e-06
-7.96414e-06
2.73166e-06
-7.63746e-06
3.07559e-06
-7.28647e-06
3.46505e-06
-6.91481e-06
3.90715e-06
-6.52881e-06
4.40794e-06
-6.1383e-06
4.96992e-06
-5.75726e-06
5.58877e-06
-5.40382e-06
6.24794e-06
-5.09905e-06
6.90877e-06
-4.86308e-06
7.5257e-06
-4.70242e-06
8.06951e-06
-4.60426e-06
8.53055e-06
-4.54712e-06
8.91087e-06
-4.51001e-06
9.21714e-06
-4.47618e-06
9.45691e-06
-4.4341e-06
9.63711e-06
-4.37651e-06
9.76388e-06
-4.29905e-06
9.84227e-06
-4.19984e-06
9.8761e-06
-4.08086e-06
9.86884e-06
-3.94345e-06
9.82412e-06
-3.78662e-06
9.74478e-06
-3.61063e-06
9.63313e-06
-3.41656e-06
9.49144e-06
-3.20566e-06
9.32214e-06
-2.97912e-06
9.12787e-06
-2.73809e-06
8.91147e-06
-2.48369e-06
8.67591e-06
-2.21712e-06
8.42434e-06
-1.93959e-06
8.16007e-06
-1.65239e-06
7.88671e-06
-1.35697e-06
7.6082e-06
-1.05494e-06
7.32878e-06
-7.48352e-07
7.05278e-06
-4.39988e-07
6.7841e-06
-1.33813e-07
6.5247e-06
1.65654e-07
6.27615e-06
4.52125e-07
6.03696e-06
7.18846e-07
5.80217e-06
9.59077e-07
5.56378e-06
1.16796e-06
5.31316e-06
1.34437e-06
5.04447e-06
1.49141e-06
4.75507e-06
1.61358e-06
4.4413e-06
1.71408e-06
4.09843e-06
1.79664e-06
3.72416e-06
1.86747e-06
3.32007e-06
1.93391e-06
2.89116e-06
2.0024e-06
2.44492e-06
2.07763e-06
1.99039e-06
2.16212e-06
1.53716e-06
2.25579e-06
1.09398e-06
2.35536e-06
6.6649e-07
2.45404e-06
2.53768e-07
2.5427e-06
-1.58743e-07
2.6092e-06
-5.76838e-07
2.65309e-06
-9.95824e-07
2.68232e-06
-1.40778e-06
2.68992e-06
-1.81474e-06
2.68113e-06
-2.21523e-06
2.62903e-06
-2.61226e-06
2.56131e-06
-3.00431e-06
2.36758e-06
-3.49308e-06
1.93681e-06
-4.12457e-06
9.36153e-07
-4.78954e-06
-4.00401e-07
2.09695e-06
-1.21365e-05
-5.51528e-07
-3.81396e-06
-6.86768e-06
-4.60096e-06
-9.05037e-06
-7.66087e-06
-1.14597e-05
-5.45604e-06
-1.28839e-05
-5.53321e-06
-1.38899e-05
-4.57708e-06
-1.45426e-05
-3.74909e-06
-1.4923e-05
-2.87745e-06
-1.51098e-05
-1.99482e-06
-1.05751e-06
-1.22436e-08
-1.01252e-05
-2.46522e-08
-1.02372e-05
-3.60349e-08
-1.02479e-05
-4.57905e-08
-1.02511e-05
-5.3332e-08
-1.02538e-05
-5.81871e-08
-1.02573e-05
-6.00547e-08
-1.02622e-05
-5.873e-08
-1.02682e-05
-5.39911e-08
-1.0275e-05
-4.55334e-08
-1.02824e-05
-3.29641e-08
-1.02897e-05
-1.5827e-08
-1.02964e-05
6.3684e-09
-1.03017e-05
3.41421e-08
-1.03048e-05
6.79399e-08
-1.03048e-05
1.08051e-07
-1.03005e-05
1.55024e-07
-1.02911e-05
2.09535e-07
-1.0276e-05
2.7232e-07
-1.02543e-05
3.44097e-07
-1.02247e-05
4.25534e-07
-1.01861e-05
5.17283e-07
-1.01373e-05
6.2003e-07
-1.00769e-05
7.3447e-07
-1.00036e-05
8.61342e-07
-9.91591e-06
1.00148e-06
-9.8125e-06
1.15582e-06
-9.69193e-06
1.32545e-06
-9.55279e-06
1.51164e-06
-9.39369e-06
1.71588e-06
-9.21336e-06
1.93994e-06
-9.01067e-06
2.18594e-06
-8.78478e-06
2.45644e-06
-8.53525e-06
2.75452e-06
-8.26221e-06
3.0837e-06
-7.96664e-06
3.44789e-06
-7.65068e-06
3.85111e-06
-7.31809e-06
4.29691e-06
-6.97465e-06
4.78714e-06
-6.62852e-06
5.32026e-06
-6.29038e-06
5.88936e-06
-5.9729e-06
6.47961e-06
-5.68928e-06
7.06681e-06
-5.45026e-06
7.62364e-06
-5.25924e-06
8.12957e-06
-5.11019e-06
8.57351e-06
-4.99107e-06
8.95192e-06
-4.88843e-06
9.26609e-06
-4.79035e-06
9.51955e-06
-4.68756e-06
9.71664e-06
-4.57359e-06
9.86195e-06
-4.44436e-06
9.96017e-06
-4.29806e-06
1.00143e-05
-4.13497e-06
1.00265e-05
-3.95567e-06
9.99986e-06
-3.75999e-06
9.93728e-06
-3.54805e-06
9.84133e-06
-3.32061e-06
9.71445e-06
-3.07877e-06
9.55908e-06
-2.82375e-06
9.37779e-06
-2.5568e-06
9.17328e-06
-2.27919e-06
8.94841e-06
-1.99225e-06
8.70618e-06
-1.69736e-06
8.44977e-06
-1.39599e-06
8.18251e-06
-1.08971e-06
7.90788e-06
-7.80309e-07
7.6294e-06
-4.69872e-07
7.3504e-06
-1.60996e-07
7.07333e-06
1.43255e-07
6.80139e-06
4.37598e-07
6.53476e-06
7.18758e-07
6.2719e-06
9.817e-07
6.00901e-06
1.22197e-06
5.74062e-06
1.43634e-06
5.461e-06
1.624e-06
5.16582e-06
1.7866e-06
4.85238e-06
1.92702e-06
4.51813e-06
2.04833e-06
4.16068e-06
2.15409e-06
3.7792e-06
2.24896e-06
3.37516e-06
2.33794e-06
2.95225e-06
2.42532e-06
2.5157e-06
2.51417e-06
2.0717e-06
2.60613e-06
1.62645e-06
2.70104e-06
1.18521e-06
2.79661e-06
7.50842e-07
2.88841e-06
3.2245e-07
2.9711e-06
-1.06672e-07
3.03833e-06
-5.39356e-07
3.08578e-06
-9.75666e-07
3.11863e-06
-1.4115e-06
3.12575e-06
-1.84888e-06
3.11852e-06
-2.28359e-06
3.06374e-06
-2.72401e-06
3.00174e-06
-3.17019e-06
2.81377e-06
-3.68328e-06
2.44991e-06
-4.34317e-06
1.59604e-06
-4.92242e-06
1.78846e-07
1.36245e-06
-1.84213e-05
-1.77262e-06
-6.78846e-07
-6.86667e-06
4.93107e-07
-8.94497e-06
-5.58256e-06
-1.07615e-05
-3.6395e-06
-1.21184e-05
-4.17628e-06
-1.3001e-05
-3.69451e-06
-1.36019e-05
-3.14815e-06
-1.39821e-05
-2.49727e-06
-1.41907e-05
-1.78623e-06
-9.78718e-07
-1.38529e-08
-1.01114e-05
-2.79272e-08
-1.02231e-05
-4.08966e-08
-1.02349e-05
-5.20383e-08
-1.024e-05
-6.06635e-08
-1.02451e-05
-6.62777e-08
-1.02517e-05
-6.85985e-08
-1.02599e-05
-6.74107e-08
-1.02694e-05
-6.24305e-08
-1.028e-05
-5.32636e-08
-1.02915e-05
-3.9429e-08
-1.03035e-05
-2.03962e-08
-1.03154e-05
4.3873e-09
-1.03264e-05
3.5433e-08
-1.03358e-05
7.31263e-08
-1.03425e-05
1.17879e-07
-1.03452e-05
1.70597e-07
-1.03438e-05
2.32081e-07
-1.03375e-05
3.03058e-07
-1.03252e-05
3.8424e-07
-1.03059e-05
4.76295e-07
-1.02782e-05
5.79872e-07
-1.02409e-05
6.95672e-07
-1.01927e-05
8.24455e-07
-1.01324e-05
9.67034e-07
-1.00585e-05
1.12428e-06
-9.96975e-06
1.29713e-06
-9.86479e-06
1.48664e-06
-9.7423e-06
1.69397e-06
-9.60102e-06
1.92045e-06
-9.43983e-06
2.16759e-06
-9.2578e-06
2.43711e-06
-9.0543e-06
2.73096e-06
-8.82911e-06
3.05137e-06
-8.58259e-06
3.40067e-06
-8.31589e-06
3.78116e-06
-8.03113e-06
4.19479e-06
-7.73172e-06
4.64268e-06
-7.42253e-06
5.12423e-06
-7.11003e-06
5.63599e-06
-6.80212e-06
6.17065e-06
-6.50754e-06
6.71608e-06
-6.23471e-06
7.25569e-06
-5.98987e-06
7.77148e-06
-5.77504e-06
8.24835e-06
-5.58708e-06
8.6763e-06
-5.41903e-06
9.05019e-06
-5.26232e-06
9.36857e-06
-5.10872e-06
9.63235e-06
-4.95133e-06
9.84373e-06
-4.78496e-06
1.00056e-05
-4.60624e-06
1.0121e-05
-4.41348e-06
1.01924e-05
-4.20637e-06
1.02218e-05
-3.98509e-06
1.02116e-05
-3.74977e-06
1.01643e-05
-3.50072e-06
1.00823e-05
-3.23867e-06
9.96824e-06
-2.96467e-06
9.82446e-06
-2.67997e-06
9.65355e-06
-2.38589e-06
9.4582e-06
-2.08383e-06
9.24118e-06
-1.77523e-06
9.00538e-06
-1.46157e-06
8.75379e-06
-1.1444e-06
8.48949e-06
-8.25402e-07
8.21556e-06
-5.0638e-07
7.9351e-06
-1.89412e-07
7.65137e-06
1.2273e-07
7.36656e-06
4.28071e-07
7.08153e-06
7.22636e-07
6.7969e-06
1.00339e-06
6.5118e-06
1.26681e-06
6.22391e-06
1.50986e-06
5.92975e-06
1.73051e-06
5.62552e-06
1.92824e-06
5.30806e-06
2.10405e-06
4.97513e-06
2.25996e-06
4.62492e-06
2.39854e-06
4.25603e-06
2.52299e-06
3.86806e-06
2.63695e-06
3.46205e-06
2.74396e-06
3.04047e-06
2.84691e-06
2.60678e-06
2.94786e-06
2.16505e-06
3.04787e-06
1.71935e-06
3.14677e-06
1.27297e-06
3.243e-06
8.27708e-07
3.33369e-06
3.83397e-07
3.41543e-06
-6.23599e-08
3.4841e-06
-5.12548e-07
3.53598e-06
-9.67719e-07
3.57382e-06
-1.42617e-06
3.58421e-06
-1.89123e-06
3.58359e-06
-2.35873e-06
3.53125e-06
-2.8351e-06
3.47812e-06
-3.32138e-06
3.30006e-06
-3.85122e-06
2.97974e-06
-4.50854e-06
2.25336e-06
-5.12593e-06
7.96238e-07
-2.57272e-06
-2.09745e-05
-6.29206e-06
3.04051e-06
-7.7618e-06
1.96285e-06
-9.82411e-06
-3.52024e-06
-1.07569e-05
-2.70666e-06
-1.17329e-05
-3.20028e-06
-1.24007e-05
-3.02676e-06
-1.28745e-05
-2.67425e-06
-1.31956e-05
-2.17622e-06
-1.33862e-05
-1.59556e-06
-9.01142e-07
-1.59372e-08
-1.00954e-05
-3.21334e-08
-1.02069e-05
-4.71303e-08
-1.02199e-05
-6.00913e-08
-1.0227e-05
-7.02525e-08
-1.0235e-05
-7.71289e-08
-1.02449e-05
-8.04535e-08
-1.02566e-05
-7.99688e-08
-1.02699e-05
-7.53016e-08
-1.02847e-05
-6.5964e-08
-1.03009e-05
-5.1397e-08
-1.03181e-05
-3.10166e-08
-1.03358e-05
-4.25764e-09
-1.03532e-05
2.93107e-08
-1.03694e-05
7.01278e-08
-1.03833e-05
1.19149e-07
-1.03942e-05
1.77321e-07
-1.0402e-05
2.45408e-07
-1.04056e-05
3.24061e-07
-1.04039e-05
4.13925e-07
-1.03957e-05
5.15732e-07
-1.038e-05
6.3024e-07
-1.03554e-05
7.58226e-07
-1.03207e-05
9.00501e-07
-1.02746e-05
1.05791e-06
-1.02159e-05
1.23133e-06
-1.01432e-05
1.42167e-06
-1.00551e-05
1.62991e-06
-9.95054e-06
1.85708e-06
-9.8282e-06
2.10433e-06
-9.68707e-06
2.37284e-06
-9.52632e-06
2.66393e-06
-9.3454e-06
2.97897e-06
-9.14416e-06
3.31939e-06
-8.923e-06
3.68651e-06
-8.68296e-06
4.08136e-06
-8.42594e-06
4.50441e-06
-8.15475e-06
4.9552e-06
-7.8733e-06
5.43169e-06
-7.58651e-06
5.92967e-06
-7.30009e-06
6.4422e-06
-7.02008e-06
6.95942e-06
-6.75194e-06
7.46913e-06
-6.4996e-06
7.9584e-06
-6.26433e-06
8.41576e-06
-6.04446e-06
8.83259e-06
-5.83586e-06
9.20341e-06
-5.63313e-06
9.52544e-06
-5.43074e-06
9.79791e-06
-5.2238e-06
1.00215e-05
-5.00851e-06
1.01975e-05
-4.7823e-06
1.03279e-05
-4.54384e-06
1.04142e-05
-4.29274e-06
1.04583e-05
-4.02916e-06
1.0462e-05
-3.75347e-06
1.04275e-05
-3.46624e-06
1.03572e-05
-3.16832e-06
1.02534e-05
-2.86085e-06
1.01185e-05
-2.54513e-06
9.95523e-06
-2.2226e-06
9.76613e-06
-1.89474e-06
9.55398e-06
-1.56308e-06
9.32157e-06
-1.22917e-06
9.07179e-06
-8.94622e-07
8.80752e-06
-5.61139e-07
8.53166e-06
-2.30519e-07
8.24651e-06
9.57402e-08
7.95492e-06
4.14321e-07
7.65909e-06
7.23909e-07
7.36018e-06
1.02155e-06
7.05872e-06
1.30484e-06
6.75415e-06
1.57137e-06
6.44495e-06
1.81907e-06
6.12883e-06
2.04663e-06
5.80332e-06
2.25374e-06
5.46624e-06
2.44113e-06
5.11586e-06
2.61035e-06
4.75083e-06
2.76357e-06
4.37031e-06
2.9035e-06
3.97423e-06
3.03304e-06
3.56343e-06
3.15478e-06
3.13957e-06
3.27077e-06
2.70496e-06
3.38248e-06
2.2622e-06
3.49064e-06
1.81382e-06
3.59516e-06
1.36182e-06
3.69501e-06
9.0718e-07
3.78834e-06
4.4972e-07
3.87289e-06
-1.18982e-08
3.94573e-06
-4.79578e-07
4.00367e-06
-9.54545e-07
4.04879e-06
-1.43705e-06
4.06673e-06
-1.9288e-06
4.07534e-06
-2.42834e-06
4.03079e-06
-2.93789e-06
3.98766e-06
-3.45839e-06
3.82056e-06
-4.00824e-06
3.52959e-06
-4.65308e-06
2.8982e-06
-5.39325e-06
1.53642e-06
-7.18346e-06
-1.91842e-05
-1.12193e-05
7.0763e-06
-9.5309e-06
2.74504e-07
-1.08599e-05
-2.19126e-06
-1.11466e-05
-2.41992e-06
-1.16055e-05
-2.74135e-06
-1.19903e-05
-2.64188e-06
-1.22963e-05
-2.36824e-06
-1.25286e-05
-1.944e-06
-1.26802e-05
-1.44395e-06
-8.33957e-07
-1.85188e-08
-1.00769e-05
-3.73206e-08
-1.01881e-05
-5.48289e-08
-1.02024e-05
-7.0099e-08
-1.02117e-05
-8.2319e-08
-1.02227e-05
-9.10383e-08
-1.02361e-05
-9.5983e-08
-1.02516e-05
-9.68143e-08
-1.0269e-05
-9.3054e-08
-1.02884e-05
-8.41335e-08
-1.03098e-05
-6.94349e-08
-1.03328e-05
-4.83542e-08
-1.03568e-05
-2.0405e-08
-1.03811e-05
1.4947e-08
-1.04047e-05
5.84941e-08
-1.04268e-05
1.11458e-07
-1.04472e-05
1.74569e-07
-1.04651e-05
2.48449e-07
-1.04795e-05
3.33813e-07
-1.04893e-05
4.31454e-07
-1.04934e-05
5.42176e-07
-1.04907e-05
6.66821e-07
-1.048e-05
8.06222e-07
-1.04601e-05
9.61208e-07
-1.04296e-05
1.13263e-06
-1.03873e-05
1.32135e-06
-1.03319e-05
1.52824e-06
-1.0262e-05
1.75419e-06
-1.01765e-05
2.00011e-06
-1.00741e-05
2.26691e-06
-9.95387e-06
2.55552e-06
-9.81493e-06
2.86681e-06
-9.65672e-06
3.20165e-06
-9.47904e-06
3.56078e-06
-9.28216e-06
3.9447e-06
-9.06688e-06
4.35347e-06
-8.8347e-06
4.7865e-06
-8.5878e-06
5.24231e-06
-8.32913e-06
5.71808e-06
-8.06229e-06
6.20932e-06
-7.79135e-06
6.70967e-06
-7.52044e-06
7.21091e-06
-7.2532e-06
7.70348e-06
-6.99218e-06
8.17744e-06
-6.73829e-06
8.62366e-06
-6.49067e-06
9.03468e-06
-6.24688e-06
9.40514e-06
-6.00358e-06
9.7316e-06
-5.75721e-06
1.00123e-05
-5.50451e-06
1.02467e-05
-5.24295e-06
1.04352e-05
-4.9708e-06
1.05786e-05
-4.68723e-06
1.0678e-05
-4.39212e-06
1.07346e-05
-4.08582e-06
1.07502e-05
-3.76898e-06
1.07264e-05
-3.44247e-06
1.06654e-05
-3.10738e-06
1.05696e-05
-2.76501e-06
1.04413e-05
-2.41681e-06
1.0283e-05
-2.06433e-06
1.00974e-05
-1.70916e-06
9.88726e-06
-1.35292e-06
9.65529e-06
-9.972e-07
9.4043e-06
-6.43642e-07
9.13706e-06
-2.93901e-07
8.85612e-06
5.04225e-08
8.56457e-06
3.87291e-07
8.26401e-06
7.14876e-07
7.95653e-06
1.03139e-06
7.64338e-06
1.3347e-06
7.32526e-06
1.62296e-06
7.00215e-06
1.89448e-06
6.67325e-06
2.14797e-06
6.3372e-06
2.38268e-06
5.99241e-06
2.59853e-06
5.63739e-06
2.79616e-06
5.27086e-06
2.97688e-06
4.89186e-06
3.14256e-06
4.49988e-06
3.29548e-06
4.09496e-06
3.43796e-06
3.67773e-06
3.57201e-06
3.2493e-06
3.6992e-06
2.81112e-06
3.82066e-06
2.36477e-06
3.93698e-06
1.91174e-06
4.04818e-06
1.45312e-06
4.15362e-06
9.89334e-07
4.25212e-06
5.20128e-07
4.34209e-06
4.39275e-08
4.42192e-06
-4.40418e-07
4.48801e-06
-9.34283e-07
4.54265e-06
-1.43996e-06
4.5724e-06
-1.95706e-06
4.59243e-06
-2.48861e-06
4.56234e-06
-3.03093e-06
4.52997e-06
-3.58692e-06
4.37654e-06
-4.16508e-06
4.10775e-06
-4.83638e-06
3.5695e-06
-5.87846e-06
2.5785e-06
-1.27714e-05
-1.22913e-05
-1.51753e-05
9.48016e-06
-1.21452e-05
-2.7555e-06
-1.18516e-05
-2.48485e-06
-1.15181e-05
-2.75339e-06
-1.15135e-05
-2.746e-06
-1.16455e-05
-2.50985e-06
-1.17902e-05
-2.22349e-06
-1.19308e-05
-1.80344e-06
-1.20368e-05
-1.33791e-06
-7.80047e-07
-2.16307e-08
-1.00553e-05
-4.35608e-08
-1.01662e-05
-6.41188e-08
-1.01818e-05
-8.22574e-08
-1.01936e-05
-9.71312e-08
-1.02079e-05
-1.08335e-07
-1.02249e-05
-1.15559e-07
-1.02444e-05
-1.18351e-07
-1.02662e-05
-1.16132e-07
-1.02907e-05
-1.08285e-07
-1.03176e-05
-9.41617e-08
-1.03469e-05
-7.3213e-08
-1.03778e-05
-4.48903e-08
-1.04095e-05
-8.27765e-09
-1.04413e-05
3.77145e-08
-1.04728e-05
9.38556e-08
-1.05033e-05
1.60907e-07
-1.05321e-05
2.39613e-07
-1.05582e-05
3.30852e-07
-1.05805e-05
4.35487e-07
-1.0598e-05
5.54369e-07
-1.06096e-05
6.88393e-07
-1.0614e-05
8.38414e-07
-1.06101e-05
1.0053e-06
-1.05965e-05
1.18992e-06
-1.05719e-05
1.3931e-06
-1.05351e-05
1.61568e-06
-1.04846e-05
1.85846e-06
-1.04193e-05
2.12222e-06
-1.03379e-05
2.40768e-06
-1.02393e-05
2.71549e-06
-1.01227e-05
3.04616e-06
-9.9874e-06
3.4001e-06
-9.83302e-06
3.77748e-06
-9.65957e-06
4.17814e-06
-9.46757e-06
4.60142e-06
-9.258e-06
5.046e-06
-9.03241e-06
5.50972e-06
-8.79287e-06
5.98932e-06
-8.5419e-06
6.48026e-06
-8.2823e-06
6.97668e-06
-8.01687e-06
7.47149e-06
-7.74802e-06
7.9568e-06
-7.47748e-06
8.42446e-06
-7.20594e-06
8.86682e-06
-6.93302e-06
9.27733e-06
-6.65737e-06
9.6508e-06
-6.37705e-06
9.98352e-06
-6.08993e-06
1.02731e-05
-5.79407e-06
1.05181e-05
-5.48802e-06
1.07182e-05
-5.1709e-06
1.08735e-05
-4.84247e-06
1.09844e-05
-4.50305e-06
1.10519e-05
-4.15334e-06
1.10773e-05
-3.79436e-06
1.10621e-05
-3.42732e-06
1.10084e-05
-3.05363e-06
1.09182e-05
-2.67481e-06
1.07939e-05
-2.29252e-06
1.0638e-05
-1.90848e-06
1.04533e-05
-1.52439e-06
1.02423e-05
-1.14195e-06
1.00079e-05
-7.62841e-07
9.75296e-06
-3.88678e-07
9.48015e-06
-2.10877e-08
9.19215e-06
3.38412e-07
8.89144e-06
6.88004e-07
8.57994e-06
1.02637e-06
8.25959e-06
1.35175e-06
7.9317e-06
1.66258e-06
7.59718e-06
1.95748e-06
7.25631e-06
2.23534e-06
6.9089e-06
2.49538e-06
6.55426e-06
2.73731e-06
6.19152e-06
2.96127e-06
5.8197e-06