/*--------------------------------*- C++ -*----------------------------------*\
| =========                 |                                                 |
| \\      /  F ield         | OpenFOAM: The Open Source CFD Toolbox           |
|  \\    /   O peration     | Version:  v2106                                 |
|   \\  /    A nd           | Website:  www.openfoam.com                      |
|    \\/     M anipulation  |                                                 |
\*---------------------------------------------------------------------------*/
FoamFile
{
    version     2.0;
    format      ascii;
    arch        "LSB;label=32;scalar=64";
    class       volVectorField;
    location    "1.5";
    object      U;
}
// * * * * * * * * * * * * * * * * * * * * * * * * * * * * * * * * * * * * * //

dimensions      [0 1 -1 0 0 0 0];

internalField   nonuniform List<vector> 
29678
(
(-0.0850622 8.38621e-24 -6.60761e-05)
(-0.0859782 3.63727e-22 -0.000187867)
(-0.0860009 4.65421e-21 -0.000296382)
(-0.0859477 9.29544e-20 -0.000386795)
(-0.08588 4.70586e-19 -0.000465331)
(-0.0858101 5.04356e-19 -0.000535358)
(-0.0857411 4.45399e-19 -0.000598636)
(-0.0856724 4.53808e-19 -0.000655452)
(-0.0856015 -8.8492e-19 -0.000705217)
(-0.0855239 3.83583e-19 -0.000746869)
(-0.0854337 -8.05389e-19 -0.000779213)
(-0.085324 3.77438e-19 -0.000801149)
(-0.0851873 -8.6933e-19 -0.00081178)
(-0.0850161 3.12066e-19 -0.000810446)
(-0.0848027 -8.86617e-19 -0.000796767)
(-0.0845398 3.58331e-19 -0.000770542)
(-0.0842197 -9.39145e-19 -0.000731213)
(-0.0838325 -9.28954e-19 -0.000679917)
(-0.0833688 4.58262e-19 -0.000616944)
(-0.0828171 -7.98113e-19 -0.000542437)
(-0.0821652 -8.02506e-19 -0.00045524)
(-0.0814027 -8.02839e-19 -0.000354052)
(-0.0805177 -4.95157e-20 -0.000237611)
(-0.0794974 -1.75056e-19 -0.000104732)
(-0.0783278 -2.69355e-19 4.56997e-05)
(-0.0769934 -2.40514e-19 0.000215055)
(-0.0754771 -1.03507e-19 0.000404691)
(-0.07376 4.29046e-19 0.000615967)
(-0.0718206 -6.91086e-19 0.000850641)
(-0.0696335 -7.24407e-19 0.00111097)
(-0.0671691 -6.65423e-19 0.00140002)
(-0.0643907 -5.13355e-20 0.00172219)
(-0.061252 -1.97e-19 0.00208462)
(-0.0576918 2.26164e-19 0.00249951)
(-0.0536253 3.48691e-19 0.00298981)
(-0.0489276 2.25997e-19 0.00360259)
(-0.0434044 2.87271e-19 0.00444244)
(-0.0367346 1.82234e-19 0.00575508)
(-0.0283658 2.07213e-19 0.00809882)
(-0.0173058 2.36525e-19 0.012506)
(-0.00167277 1.89618e-19 0.0206128)
(0.0196832 2.58531e-19 0.0346902)
(0.0236295 1.88441e-19 0.0533039)
(0.00615291 1.91294e-19 0.0681584)
(-0.00735969 5.14405e-20 0.0756006)
(-0.0159522 -5.9622e-20 0.0791079)
(-0.0218523 1.36406e-19 0.0809113)
(-0.0261634 2.53262e-19 0.0818392)
(-0.0293841 1.78107e-19 0.0822003)
(-0.0317729 3.74356e-19 0.0821598)
(-0.0335515 5.82846e-19 0.0818205)
(-0.0348836 2.84838e-19 0.0812254)
(-0.0358035 -1.66703e-19 0.0803888)
(-0.0363777 -2.36468e-19 0.0793254)
(-0.0366917 2.81602e-19 0.0780423)
(-0.0367873 1.844e-19 0.0765398)
(-0.0367092 7.86254e-22 0.0747976)
(-0.036386 1.47074e-19 0.0728125)
(-0.0358326 7.86951e-20 0.0706022)
(-0.035024 1.63872e-19 0.0681765)
(-0.0338805 4.02594e-20 0.0655807)
(-0.0324914 1.26068e-19 0.0628621)
(-0.0308727 -1.82888e-19 0.0600321)
(-0.028999 2.62815e-19 0.0571151)
(-0.0269243 3.65139e-19 0.0541322)
(-0.0246159 -7.2756e-20 0.0510835)
(-0.021885 -2.4418e-19 0.0480222)
(-0.0186265 -1.49551e-19 0.0450855)
(-0.0148315 -1.28289e-19 0.0424436)
(-0.010511 1.8138e-19 0.0402885)
(-0.00573909 1.4167e-21 0.0388652)
(-0.000685815 -1.42713e-19 0.0384393)
(0.00377555 -4.83165e-20 0.0390602)
(0.003996 2.2041e-19 0.0397313)
(0.00333451 -1.24301e-19 0.0394834)
(0.00335094 -6.54827e-20 0.0386561)
(0.00397333 6.93196e-20 0.0378344)
(0.00342143 6.04497e-20 0.0372881)
(-9.10956e-05 -1.18039e-19 0.036029)
(-0.00359477 -2.74649e-20 0.0333103)
(-0.00643383 1.63431e-19 0.0294534)
(-0.00846044 1.64887e-20 0.0247176)
(-0.00959205 -5.3117e-20 0.0193652)
(-0.00965294 -3.75437e-20 0.0136397)
(-0.00826763 7.75627e-20 0.00784985)
(-0.00465628 -4.84621e-21 0.00257563)
(0.00291212 -3.6213e-20 -0.00127752)
(0.0109842 -2.20921e-20 -0.000142707)
(0.00610227 6.58778e-20 0.000879233)
(-0.000802024 -1.61459e-20 -0.00340003)
(0.000486956 3.16242e-20 -0.0091242)
(0.00896237 -4.43812e-20 -0.0109857)
(0.00506287 -1.86442e-20 -0.0112154)
(0.00341605 4.87517e-20 -0.0144994)
(0.00887259 -7.39122e-20 -0.0167129)
(0.00709363 4.63733e-20 -0.0143192)
(0.00749834 -6.68512e-20 -0.0185394)
(0.0093847 -7.55527e-20 -0.00180195)
(-0.448208 -1.49748e-19 0.00241423)
(-0.063922 -2.91565e-19 -0.39253)
(0.0192709 4.70297e-19 -0.146945)
(-0.145564 3.89014e-19 -0.144451)
(-0.207997 -2.11328e-19 -0.165373)
(-0.117849 5.17544e-20 -0.189784)
(-0.112421 -4.08994e-19 -0.188673)
(-0.0649439 -2.61499e-19 -0.199698)
(-0.0455406 -7.77623e-20 -0.19495)
(-0.0116119 3.8651e-19 -0.190235)
(-0.00017968 1.32599e-20 -0.177924)
(6.90179e-05 -3.5259e-19 -0.169739)
(-0.0848826 -2.30108e-23 -5.23217e-05)
(-0.0858107 4.37465e-22 -0.000151684)
(-0.0858536 1.68117e-20 -0.000246812)
(-0.0858199 3.87297e-19 -0.000329158)
(-0.0857673 -3.92369e-21 -0.000401611)
(-0.0857094 -1.63359e-20 -0.000464688)
(-0.0856512 -2.18388e-21 -0.000518646)
(-0.0855937 3.86339e-19 -0.000562959)
(-0.0855353 -3.70685e-19 -0.000596715)
(-0.0854719 -4.30246e-20 -0.000618805)
(-0.0853976 -3.88358e-19 -0.000628115)
(-0.0853054 3.64093e-19 -0.000623602)
(-0.0851875 -3.77929e-19 -0.000604317)
(-0.0850358 -4.32456e-20 -0.000569398)
(-0.0848424 -4.31423e-19 -0.000518099)
(-0.0845996 3.45808e-19 -0.000449595)
(-0.084301 -4.6052e-19 -0.000363083)
(-0.0839358 -4.85577e-19 -0.000258709)
(-0.0834923 9.09241e-19 -0.000133993)
(-0.0829615 -4.90922e-19 1.38839e-05)
(-0.0823332 -4.99194e-19 0.000185908)
(-0.0815966 -5.06742e-19 0.000384136)
(-0.0807398 -4.16021e-20 0.000610635)
(-0.07975 -4.64841e-19 0.000867538)
(-0.0786132 -1.80372e-20 0.00115718)
(-0.0773142 -7.76003e-19 0.00148222)
(-0.0758362 4.83181e-19 0.00184568)
(-0.074161 7.23396e-19 0.00225112)
(-0.0722677 -3.34494e-19 0.0027031)
(-0.0701326 -3.82928e-19 0.00320757)
(-0.0677282 -3.7988e-19 0.00377255)
(-0.0650217 -6.03675e-20 0.0044094)
(-0.0619737 -6.62488e-19 0.0051348)
(-0.0585354 -5.31362e-20 0.00597407)
(-0.0546464 2.78957e-19 0.00696658)
(-0.0502323 -2.07994e-20 0.00817358)
(-0.0452071 3.69861e-20 0.00968518)
(-0.039492 -6.98356e-20 0.0116123)
(-0.033076 -9.97843e-21 0.0140637)
(-0.0261377 3.95746e-21 0.0173047)
(-0.0191376 -3.22396e-20 0.0223546)
(-0.0132278 1.564e-19 0.0331052)
(-0.0111359 -2.76019e-21 0.0497854)
(-0.014398 -3.68498e-20 0.0642817)
(-0.0189504 -3.75316e-20 0.0725003)
(-0.0230484 -1.83769e-19 0.0769444)
(-0.0263829 -2.48572e-19 0.0795627)
(-0.029019 -4.2424e-20 0.0811401)
(-0.0310509 -8.10719e-20 0.0820142)
(-0.0325581 2.32827e-20 0.0823729)
(-0.0336234 2.76881e-19 0.0823398)
(-0.0343245 1.7378e-19 0.0819876)
(-0.0346987 -1.31566e-19 0.0813632)
(-0.0348005 -2.84033e-19 0.0805127)
(-0.0346749 3.24398e-19 0.0794444)
(-0.0343318 -4.50035e-20 0.078153)
(-0.0337828 -1.85752e-19 0.076619)
(-0.0330188 1.53033e-20 0.074839)
(-0.0320415 -3.41039e-20 0.0728302)
(-0.0308463 1.80172e-19 0.0706054)
(-0.0294241 4.38658e-20 0.0682038)
(-0.0277913 5.68232e-20 0.0656687)
(-0.0259559 -2.27755e-19 0.0630163)
(-0.0239185 2.2066e-19 0.0602693)
(-0.0216851 3.13005e-19 0.0574475)
(-0.0192428 1.21227e-19 0.0545532)
(-0.0165586 -1.74235e-19 0.0516281)
(-0.013623 1.39217e-19 0.0487828)
(-0.0104639 -8.43541e-20 0.0461573)
(-0.00714551 -5.36909e-21 0.0439077)
(-0.0037897 -4.00095e-20 0.0421971)
(-0.00062296 -1.72984e-19 0.0412283)
(0.00200519 -1.24669e-19 0.041233)
(0.00357957 2.84174e-19 0.0415002)
(0.00441747 1.4755e-19 0.0411438)
(0.00485372 -3.39866e-19 0.0403124)
(0.00505385 8.50056e-20 0.0395921)
(0.00484374 2.58247e-19 0.0388683)
(0.00393087 -1.11992e-19 0.0372832)
(0.00283836 4.63917e-20 0.0344803)
(0.0018288 -4.86105e-20 0.0306977)
(0.0011596 3.3581e-20 0.0261949)
(0.00100139 -1.38675e-19 0.0211538)
(0.00147677 1.01139e-19 0.0157623)
(0.00266682 -1.28163e-20 0.0102501)
(0.00458589 -4.54521e-20 0.00499438)
(0.0070238 1.05481e-20 0.000584657)
(0.00939267 -3.72531e-20 -0.000458759)
(0.0088396 1.53346e-20 0.000144767)
(0.00819836 -4.70383e-21 -0.00274666)
(0.00874803 -7.15945e-21 -0.00798382)
(0.0102173 1.51585e-19 -0.0111032)
(0.00992793 -6.92362e-20 -0.0121142)
(0.00953221 8.06831e-20 -0.0149406)
(0.00974376 1.52035e-20 -0.0179221)
(0.00794337 1.80979e-19 -0.017548)
(-0.000448911 1.20892e-19 -0.0225505)
(-0.0134018 -6.85218e-20 -0.00645268)
(-0.0477709 -1.64094e-19 -0.0054669)
(-0.0244066 -4.23422e-18 -0.32779)
(-0.129549 9.83358e-19 -0.147142)
(-0.163976 -2.22405e-19 -0.128919)
(-0.143669 -3.93732e-19 -0.148615)
(-0.112144 -5.172e-20 -0.171836)
(-0.0929851 -3.88519e-20 -0.1701)
(-0.0675193 8.49354e-21 -0.180759)
(-0.0495034 -8.39187e-20 -0.177733)
(-0.0308391 -3.17243e-20 -0.17396)
(-0.017918 -4.34668e-19 -0.164821)
(-0.00829655 1.28531e-19 -0.158728)
(-0.0847931 -7.73888e-23 -4.59016e-05)
(-0.0857244 -5.91095e-22 -0.000133526)
(-0.0857756 -7.87381e-21 -0.000219291)
(-0.085751 -1.01418e-19 -0.000293706)
(-0.0857078 -4.07856e-19 -0.000359041)
(-0.0856596 -4.43243e-19 -0.000413851)
(-0.085612 -3.92367e-19 -0.000457045)
(-0.0855661 -3.93308e-19 -0.000487212)
(-0.0855205 7.62705e-19 -0.000503038)
(-0.0854709 -3.50745e-19 -0.000503302)
(-0.0854115 7.04629e-19 -0.000486854)
(-0.0853352 -2.83831e-19 -0.000452514)
(-0.0852343 8.0317e-19 -0.000398997)
(-0.0851007 -2.81944e-19 -0.000324874)
(-0.0849264 6.81882e-19 -0.000228518)
(-0.084704 -3.24346e-19 -0.000107958)
(-0.084427 7.4721e-19 3.83975e-05)
(-0.0840855 8.66296e-19 0.000213223)
(-0.0836685 -3.62541e-19 0.00041919)
(-0.0831666 7.36485e-19 0.000657731)
(-0.0825697 7.84823e-19 0.000931072)
(-0.0818667 7.20154e-19 0.00124202)
(-0.0810459 3.17547e-20 0.00159358)
(-0.0800949 3.26464e-20 0.00198895)
(-0.0789999 3.04275e-19 0.00243167)
(-0.0777461 1.67264e-19 0.00292577)
(-0.0763175 2.26669e-19 0.00347583)
(-0.0746966 -3.47443e-19 0.00408738)
(-0.0728642 6.16765e-19 0.00476735)
(-0.0707985 6.2807e-19 0.00552467)
(-0.0684751 5.5819e-19 0.00637121)
(-0.0658661 5.16449e-20 0.00732328)
(-0.0629396 1.07671e-19 0.00840386)
(-0.0596586 -2.19438e-19 0.00964612)
(-0.0559812 -2.64883e-19 0.0110986)
(-0.0518605 -1.78041e-19 0.0128332)
(-0.0472472 -2.03367e-19 0.0149578)
(-0.042089 -2.18952e-19 0.0176416)
(-0.0363152 -1.1788e-19 0.0211827)
(-0.0298092 -1.71907e-19 0.0261402)
(-0.0225867 -1.91154e-19 0.0331861)
(-0.0154273 -2.06992e-19 0.0423635)
(-0.0120944 -6.66059e-20 0.0524607)
(-0.0138194 -1.4457e-19 0.0614009)
(-0.0174026 -8.79674e-20 0.0680631)
(-0.0210271 2.84978e-19 0.0727535)
(-0.0241943 -1.39212e-19 0.0760064)
(-0.0268224 -2.4046e-19 0.0782381)
(-0.0289322 -1.70039e-19 0.0797354)
(-0.0305718 1.91353e-19 0.0806745)
(-0.0318082 -9.65633e-20 0.081166)
(-0.0327026 -3.80286e-19 0.0812622)
(-0.0332164 1.80199e-19 0.0810118)
(-0.033348 -8.73966e-20 0.0804725)
(-0.0331785 -5.49409e-19 0.0796584)
(-0.0327704 8.10597e-20 0.0785728)
(-0.0321488 1.83004e-19 0.0772296)
(-0.0313197 -4.85547e-19 0.075642)
(-0.0302877 -5.55577e-19 0.0738286)
(-0.0290524 -1.8096e-19 0.0718104)
(-0.0276109 1.19114e-19 0.0696159)
(-0.0259747 -6.39515e-20 0.067275)
(-0.0241519 -3.95676e-19 0.0648133)
(-0.0221447 1.0055e-19 0.0622575)
(-0.0199573 -7.57174e-21 0.0596368)
(-0.0175805 -3.18385e-19 0.0569846)
(-0.014991 -9.61498e-20 0.0543533)
(-0.0121831 1.19236e-19 0.0518202)
(-0.00918513 8.73097e-20 0.0494744)
(-0.00606163 -2.05174e-19 0.0474076)
(-0.00292666 -9.09595e-21 0.0457041)
(4.4073e-05 1.89324e-19 0.044425)
(0.00256531 6.49352e-21 0.0435275)
(0.00422189 -1.10969e-19 0.0427544)
(0.00513173 1.53951e-19 0.0418073)
(0.00559202 -2.1903e-20 0.0405991)
(0.00576911 -1.63735e-19 0.0391678)
(0.00546188 -1.77447e-20 0.0373633)
(0.00459247 1.11206e-19 0.0350666)
(0.00350217 -8.76651e-21 0.0321733)
(0.00253122 -1.44531e-19 0.0287099)
(0.00187066 -9.95538e-21 0.0247802)
(0.00166222 4.24546e-20 0.0205149)
(0.00201657 -1.31743e-20 0.016065)
(0.00302028 -7.0575e-20 0.0116254)
(0.00471298 -4.66577e-22 0.00745659)
(0.00700275 -3.47137e-20 0.00391123)
(0.00945526 7.44625e-21 0.00158572)
(0.0097193 -4.85738e-20 -0.000363391)
(0.00890346 -8.65536e-21 -0.0035997)
(0.00902186 -1.00179e-19 -0.0074119)
(0.0101571 3.54813e-20 -0.0105176)
(0.0102819 -6.70454e-20 -0.0129244)
(0.0097243 -1.15358e-19 -0.0157568)
(0.00972546 4.37272e-21 -0.0185766)
(0.00822367 -1.16283e-19 -0.0204356)
(0.00029646 2.06044e-20 -0.0254259)
(-0.01253 1.56468e-20 -0.0268009)
(-0.0361756 1.30224e-19 -0.0393595)
(-0.0164341 1.09152e-19 -0.0550231)
(-0.116362 2.91612e-19 -0.0785812)
(-0.169303 -4.3898e-19 -0.1069)
(-0.135246 1.13944e-19 -0.111568)
(-0.108423 -2.11843e-20 -0.142259)
(-0.0874953 3.18626e-19 -0.143376)
(-0.064257 7.67539e-20 -0.156107)
(-0.0462871 -5.87619e-20 -0.15755)
(-0.0289575 -2.11004e-19 -0.158104)
(-0.016563 1.97474e-19 -0.155961)
(-0.00765016 2.83095e-19 -0.153924)
(-0.0847064 -8.42808e-23 -4.40203e-05)
(-0.0856399 -1.15852e-21 -0.000128275)
(-0.0856992 -2.34077e-20 -0.000211655)
(-0.0856839 -3.52646e-19 -0.00028302)
(-0.0856513 4.01243e-19 -0.000344565)
(-0.0856153 4.26976e-19 -0.000393617)
(-0.0855815 4.29329e-19 -0.000428232)
(-0.0855511 -1.69209e-20 -0.000446452)
(-0.0855222 -3.52617e-19 -0.000446751)
(-0.0854907 3.7085e-19 -0.000427819)
(-0.0854506 -3.03153e-19 -0.000388327)
(-0.0853949 -3.89919e-20 -0.000326723)
(-0.0853162 -3.67824e-19 -0.000241141)
(-0.0852069 3.2898e-19 -0.000129395)
(-0.0850591 -3.05903e-19 1.09333e-05)
(-0.0848653 -4.47939e-20 0.00018302)
(-0.0846194 -3.81262e-19 0.000388544)
(-0.0843114 -4.00613e-19 0.000629929)
(-0.0839305 -4.53558e-19 0.00091098)
(-0.0834672 -4.46208e-19 0.00123439)
(-0.0829119 -3.78167e-19 0.00160328)
(-0.0822538 -3.90341e-19 0.0020213)
(-0.0814814 -4.08048e-21 0.00249229)
(-0.0805826 3.43701e-19 0.00302037)
(-0.0795441 -3.10209e-19 0.00361008)
(-0.0783517 7.23846e-19 0.00426655)
(-0.0769901 -5.85035e-19 0.0049957)
(-0.0754433 -4.12437e-19 0.00580454)
(-0.0736937 -3.44268e-19 0.00670163)
(-0.0717221 -3.10343e-19 0.00769782)
(-0.069508 -2.91377e-19 0.00880725)
(-0.0670291 -4.16638e-21 0.0100488)
(-0.0642616 5.97267e-19 0.0114482)
(-0.0611809 3.93183e-19 0.0130409)
(-0.0577629 2.51444e-20 0.0148762)
(-0.0539871 2.6216e-19 0.0170229)
(-0.0498435 2.47193e-19 0.0195765)
(-0.0453452 1.93357e-19 0.0226692)
(-0.0405594 3.13284e-19 0.0264748)
(-0.0356936 2.26673e-19 0.0311762)
(-0.0312753 2.31649e-19 0.0369072)
(-0.0281132 2.81612e-20 0.0437956)
(-0.0267747 1.90646e-19 0.0515745)
(-0.0271811 1.56248e-19 0.059165)
(-0.0285106 -9.90935e-21 0.0655251)
(-0.0301114 3.05576e-19 0.0704219)
(-0.0316296 2.69566e-19 0.0740761)
(-0.0328905 2.96961e-19 0.0767578)
(-0.0338318 3.59392e-20 0.0786823)
(-0.0344393 3.45038e-19 0.0800024)
(-0.0347142 6.99228e-19 0.0808273)
(-0.0346431 2.97419e-19 0.0812164)
(-0.0343278 -2.69326e-19 0.0812317)
(-0.0338693 -1.66038e-19 0.0809285)
(-0.0332513 2.81196e-19 0.08034)
(-0.0324434 3.26337e-20 0.079474)
(-0.0314495 2.91297e-20 0.0783456)
(-0.0302713 1.2371e-19 0.0769691)
(-0.0289113 -3.99793e-20 0.0753624)
(-0.0273717 -7.07671e-21 0.0735467)
(-0.0256556 -9.0292e-21 0.0715477)
(-0.0237708 9.118e-20 0.0693938)
(-0.0217254 -2.21391e-19 0.0671115)
(-0.0195273 2.60557e-19 0.0647276)
(-0.0171841 3.54959e-19 0.0622719)
(-0.0147012 -2.0254e-19 0.0597773)
(-0.0120847 -3.15782e-19 0.057287)
(-0.00935359 -2.28922e-19 0.0548594)
(-0.00654707 -1.29365e-20 0.0525607)
(-0.00372938 2.18034e-19 0.0504541)
(-0.000992528 2.3548e-20 0.0485812)
(0.00154905 -2.19581e-19 0.046976)
(0.00372447 -2.31066e-20 0.0456134)
(0.00539486 1.47104e-19 0.044355)
(0.00656242 -1.33272e-19 0.043031)
(0.0073819 -5.27696e-20 0.0415428)
(0.00801679 1.61772e-19 0.0398436)
(0.00843059 4.02263e-20 0.0378747)
(0.00858038 -1.41745e-19 0.0355171)
(0.00858962 1.45617e-20 0.032669)
(0.00861208 1.32563e-19 0.0293356)
(0.00876998 3.88841e-20 0.025591)
(0.00914713 -1.37893e-19 0.0215436)
(0.00979469 -1.71902e-21 0.0173275)
(0.0107334 1.48708e-19 0.013103)
(0.0119269 -4.70297e-20 0.00906053)
(0.0132494 -1.24651e-20 0.00540604)
(0.0144003 -3.31688e-20 0.00231848)
(0.0146733 4.94872e-20 -0.000437606)
(0.0146311 -2.01497e-20 -0.0035855)
(0.014898 2.12084e-20 -0.00696114)
(0.0152926 -2.9919e-20 -0.0101818)
(0.0153353 -1.27725e-20 -0.013046)
(0.0150015 1.79288e-20 -0.015962)
(0.0146088 -6.17576e-20 -0.0187707)
(0.0130602 1.45261e-20 -0.0210042)
(0.00726689 -5.4359e-20 -0.0252081)
(-0.00384344 -5.34171e-20 -0.0266961)
(-0.0151585 -2.09736e-19 -0.0389134)
(-0.0127302 -2.4045e-19 -0.0431998)
(-0.0813134 7.61123e-19 -0.0354976)
(-0.143972 4.78542e-20 -0.0957492)
(-0.108455 -1.10055e-19 -0.0830404)
(-0.092047 2.20191e-19 -0.125501)
(-0.074875 -3.89009e-22 -0.124258)
(-0.0584626 -1.9911e-19 -0.13919)
(-0.0444465 -1.53973e-19 -0.142386)
(-0.0314153 3.56586e-19 -0.144586)
(-0.0201502 1.14023e-19 -0.144304)
(-0.00995174 -2.77804e-19 -0.1435)
(-0.0846207 -4.49661e-23 -4.45583e-05)
(-0.085555 -3.44579e-22 -0.000130408)
(-0.0856222 -4.26061e-21 -0.000216652)
(-0.0856172 -3.6946e-20 -0.00028984)
(-0.0855971 2.12676e-20 -0.000351782)
(-0.085576 2.30436e-20 -0.000398655)
(-0.0855593 1.95131e-20 -0.000427958)
(-0.0855478 -5.78013e-20 -0.0004375)
(-0.0855393 1.58172e-20 -0.000425734)
(-0.0855294 1.70408e-20 -0.000391244)
(-0.0855127 -1.87659e-20 -0.000332353)
(-0.0854824 -2.01543e-20 -0.000246936)
(-0.0854315 -1.19007e-19 -0.000132423)
(-0.0853526 1.24765e-20 1.40906e-05)
(-0.0852383 3.85403e-20 0.000196026)
(-0.085081 -1.44956e-20 0.000417203)
(-0.0848737 -8.26013e-21 0.000678617)
(-0.0846072 -5.73666e-20 0.000983474)
(-0.0842713 -3.22269e-20 0.00133662)
(-0.0838569 4.37295e-20 0.00174161)
(-0.0833544 2.15069e-20 0.00220265)
(-0.0827532 1.94588e-21 0.00272423)
(-0.082042 -2.16887e-20 0.00331113)
(-0.0812091 5.85781e-20 0.00396829)
(-0.0802418 4.29121e-22 0.00470097)
(-0.0791265 1.25763e-19 0.00551503)
(-0.077849 7.67471e-20 0.00641731)
(-0.0763943 -8.13687e-20 0.00741577)
(-0.0747469 5.00081e-20 0.00851978)
(-0.0728904 2.48238e-20 0.00974109)
(-0.070808 6.07392e-21 0.0110947)
(-0.068483 -6.99731e-20 0.0125999)
(-0.0658992 1.46389e-20 0.0142823)
(-0.0630426 7.5683e-20 0.0161753)
(-0.0599033 1.39104e-20 0.0183233)
(-0.0564803 1.24894e-20 0.0207842)
(-0.0527882 2.17989e-20 0.0236324)
(-0.0488691 -1.23783e-19 0.0269602)
(-0.0448118 8.05157e-20 0.0308724)
(-0.0407764 1.57501e-20 0.0354673)
(-0.0369972 1.53551e-20 0.0408089)
(-0.0337751 -2.02667e-20 0.046892)
(-0.0315604 1.38875e-20 0.0534039)
(-0.0306109 -3.23372e-20 0.0596699)
(-0.0306412 -1.44308e-20 0.0651302)
(-0.0311861 2.11207e-19 0.0696144)
(-0.031901 -1.74206e-19 0.0731836)
(-0.032579 2.43397e-21 0.0759642)
(-0.0331106 -1.63012e-19 0.0780798)
(-0.0334444 1.19063e-20 0.079631)
(-0.0335617 2.91944e-19 0.0806952)
(-0.0334746 1.18082e-19 0.0813139)
(-0.0331657 -2.16641e-19 0.0815408)
(-0.0326081 -4.01807e-20 0.0814445)
(-0.0318086 5.773e-19 0.0810508)
(-0.0307994 -1.47199e-19 0.0803677)
(-0.0296042 -1.52988e-20 0.0794135)
(-0.0282372 1.75069e-19 0.0782057)
(-0.0267085 1.98152e-20 0.0767633)
(-0.0250261 1.08285e-19 0.0751076)
(-0.0231974 2.27375e-20 0.0732619)
(-0.0212311 1.0489e-19 0.071251)
(-0.0191367 -2.34883e-19 0.069101)
(-0.0169232 2.9048e-19 0.0668403)
(-0.0145998 3.96486e-19 0.0644992)
(-0.0121754 5.31902e-20 0.0621117)
(-0.00966117 -2.29825e-19 0.0597172)
(-0.00707739 1.31261e-19 0.0573605)
(-0.00445803 1.9809e-20 0.0550881)
(-0.00185343 1.8231e-20 0.0529451)
(0.000664079 -7.43459e-21 0.0509727)
(0.00301354 -2.1758e-19 0.0491658)
(0.0050825 -7.20314e-20 0.0474741)
(0.00677015 2.25094e-19 0.0458198)
(0.00806093 2.12024e-19 0.0440914)
(0.00901614 -3.30456e-19 0.0421925)
(0.00970697 1.26579e-19 0.0400776)
(0.010138 7.96773e-20 0.0377268)
(0.0103272 -8.2241e-20 0.0350924)
(0.0103727 4.37877e-21 0.0321313)
(0.0104014 -2.99541e-20 0.0288469)
(0.0105249 3.44504e-20 0.0252846)
(0.0108256 -1.17423e-19 0.0215181)
(0.0113541 1.16741e-19 0.0176419)
(0.0121228 -7.75013e-21 0.0137646)
(0.0130948 -6.78483e-20 0.0100011)
(0.0141674 -8.79541e-22 0.00645498)
(0.015167 -9.99288e-21 0.00318089)
(0.0157643 3.11263e-20 5.89441e-05)
(0.0161083 -2.73398e-20 -0.00320241)
(0.0164022 -3.33057e-20 -0.00658119)
(0.0166161 9.71078e-20 -0.00991752)
(0.0166458 -9.24739e-20 -0.0130895)
(0.0163147 2.28165e-21 -0.0162595)
(0.0158117 -2.8313e-20 -0.0193307)
(0.0142166 -5.56628e-22 -0.0222273)
(0.00924118 9.99557e-20 -0.0263665)
(-0.000954309 -5.72575e-20 -0.0286844)
(-0.0125194 -2.03089e-19 -0.0392457)
(-0.0192687 -9.52466e-18 -0.0407996)
(-0.0643029 1.50745e-18 0.0249794)
(-0.114432 -1.94891e-19 -0.084561)
(-0.0918572 -6.74287e-20 -0.0582688)
(-0.0753444 7.28188e-20 -0.110018)
(-0.063833 1.59782e-19 -0.108043)
(-0.0505464 -4.58442e-20 -0.124331)
(-0.0391219 1.86135e-20 -0.129143)
(-0.0282989 9.03517e-20 -0.132894)
(-0.0185308 -4.22316e-19 -0.134477)
(-0.00934772 8.89544e-20 -0.134996)
(-0.0845316 -3.36503e-23 -4.73024e-05)
(-0.0854656 -2.45636e-22 -0.000138895)
(-0.085541 -3.57245e-21 -0.000232065)
(-0.0855474 -7.66385e-21 -0.000310939)
(-0.0855419 -4.41916e-20 -0.000376822)
(-0.0855388 2.37199e-20 -0.000424784)
(-0.0855425 2.7703e-20 -0.000451998)
(-0.0855532 2.37108e-20 -0.000456267)
(-0.0855683 3.75942e-19 -0.000436074)
(-0.0855839 -1.13101e-20 -0.000389752)
(-0.0855947 3.13621e-19 -0.000315078)
(-0.0855947 2.60776e-20 -0.000209203)
(-0.0855771 3.84402e-19 -6.89105e-05)
(-0.0855352 4.06816e-20 0.000109505)
(-0.0854613 3.23778e-19 0.000330333)
(-0.085348 2.56472e-20 0.000597134)
(-0.0851864 3.90289e-19 0.000910647)
(-0.0849694 4.02532e-19 0.00127573)
(-0.0846878 -3.31222e-19 0.00169789)
(-0.0843323 4.04706e-19 0.00218163)
(-0.0838935 3.82943e-19 0.00273213)
(-0.083361 4.1071e-19 0.0033546)
(-0.0827237 1.82818e-20 0.00405458)
(-0.08197 3.09248e-19 0.00483765)
(-0.0810878 7.49408e-20 0.00570931)
(-0.080064 2.8368e-19 0.00667577)
(-0.0788857 1.93143e-19 0.00774429)
(-0.0775391 -3.7537e-19 0.00892327)
(-0.0760102 1.80939e-19 0.0102224)
(-0.0742853 2.84444e-19 0.0116536)
(-0.0723513 3.26692e-19 0.0132316)
(-0.0701962 -1.36891e-20 0.0149746)
(-0.0678098 1.85691e-19 0.0169058)
(-0.0651863 1.19178e-19 0.0190542)
(-0.0623259 1.43902e-19 0.0214561)
(-0.0592392 3.31394e-20 0.024156)
(-0.0559534 1.35181e-19 0.027206)
(-0.0525205 -2.98442e-19 0.0306643)
(-0.0490281 5.22908e-20 0.0345864)
(-0.04561 1.2558e-19 0.0390093)
(-0.0424497 5.67937e-20 0.0439272)
(-0.0397789 1.30167e-19 0.0492546)
(-0.037864 7.87464e-20 0.0547652)
(-0.0367843 8.21448e-20 0.0601125)
(-0.0363466 -2.14916e-19 0.0649807)
(-0.0362724 2.79874e-19 0.0691983)
(-0.0363323 2.48554e-19 0.0727283)
(-0.0363716 1.46547e-19 0.0756067)
(-0.0362957 6.92113e-20 0.0778941)
(-0.0360492 1.35703e-19 0.0796525)
(-0.0355981 4.13203e-19 0.0809385)
(-0.0349255 1.83752e-19 0.0817953)
(-0.0340702 -2.39261e-19 0.0822556)
(-0.0330636 -4.16297e-19 0.082362)
(-0.0318951 1.72144e-19 0.0821433)
(-0.0305624 -5.23853e-21 0.081624)
(-0.0290726 -9.1474e-20 0.0808249)
(-0.0274344 1.19929e-20 0.0797652)
(-0.0256565 -1.65364e-19 0.0784649)
(-0.0237472 -5.7604e-21 0.0769451)
(-0.0217148 -6.12586e-20 0.0752287)
(-0.0195682 8.0901e-21 0.0733401)
(-0.0173163 -3.79409e-19 0.0713047)
(-0.0149686 1.49695e-19 0.0691491)
(-0.012536 3.05394e-19 0.0669023)
(-0.0100307 -2.02114e-19 0.0645955)
(-0.00746946 -3.33547e-19 0.0622631)
(-0.00487518 -3.16049e-19 0.0599412)
(-0.00228188 -2.62998e-20 0.0576641)
(0.000262214 2.19848e-19 0.0554573)
(0.0027038 4.17411e-20 0.0533401)
(0.00496329 -2.45139e-19 0.0513073)
(0.00697913 -5.08353e-20 0.049335)
(0.00870276 2.0779e-19 0.0473721)
(0.0101277 -1.22033e-19 0.0453474)
(0.011295 -9.65923e-20 0.0431964)
(0.0122587 1.92588e-19 0.0408807)
(0.0130477 3.71295e-20 0.0383751)
(0.0136905 -1.37168e-19 0.0356446)
(0.0142417 -3.96838e-20 0.0326582)
(0.0147682 1.07487e-19 0.0294129)
(0.0153282 3.783e-20 0.0259369)
(0.0159626 -1.44695e-19 0.0222825)
(0.0166925 -5.03424e-20 0.018518)
(0.017514 1.35997e-19 0.0147202)
(0.0183925 -5.35115e-20 0.0109668)
(0.0192585 -7.68047e-20 0.00731478)
(0.0200124 -8.41101e-21 0.00381191)
(0.0205189 2.57979e-20 0.000371997)
(0.0208209 -3.61128e-21 -0.00306898)
(0.0210165 -6.0001e-20 -0.00656205)
(0.0210594 -1.83116e-20 -0.0100305)
(0.020954 3.0157e-20 -0.0134413)
(0.0205072 -8.49863e-20 -0.0168134)
(0.0199166 -1.69651e-20 -0.0201454)
(0.0183054 -9.75333e-20 -0.0233394)
(0.0144067 -4.15127e-20 -0.0270091)
(0.00567995 -1.76391e-19 -0.0307099)
(-0.00553116 -2.8978e-19 -0.0391791)
(-0.0651672 -6.41741e-19 -0.0382127)
(-0.0424555 1.50055e-19 0.0707308)
(-0.0647561 -1.80083e-19 -0.0780987)
(-0.0730054 1.64658e-19 -0.0443276)
(-0.0543263 3.12353e-19 -0.0990463)
(-0.0515905 2.75793e-20 -0.0980094)
(-0.0421033 -3.64224e-19 -0.113208)
(-0.0339658 -1.51453e-19 -0.118874)
(-0.0257089 2.97331e-19 -0.123107)
(-0.0175783 1.3279e-19 -0.125384)
(-0.00918356 -3.0477e-19 -0.126446)
(-0.0844348 -2.70688e-23 -5.21001e-05)
(-0.0853679 1.03107e-22 -0.000153302)
(-0.0854517 2.36909e-21 -0.000257053)
(-0.0854709 1.25765e-19 -0.00034503)
(-0.0854826 1.10087e-20 -0.000418048)
(-0.0855004 -1.53436e-21 -0.000470224)
(-0.0855277 -2.74208e-21 -0.000498673)
(-0.0855636 7.38887e-20 -0.000501325)
(-0.0856056 -3.56977e-19 -0.000476583)
(-0.0856503 -3.62447e-19 -0.000422306)
(-0.085693 -3.68007e-19 -0.000335554)
(-0.0857285 -5.51766e-20 -0.000212732)
(-0.0857502 -2.8688e-19 -4.99673e-05)
(-0.0857514 -3.48647e-19 0.000157023)
(-0.0857248 -3.64547e-19 0.000413271)
(-0.0856618 -6.72808e-21 0.000720707)
(-0.0855534 -3.50214e-19 0.00108158)
(-0.0853944 -3.84722e-19 0.00150319)
(-0.0851764 1.12732e-19 0.00199097)
(-0.0848902 -3.78224e-19 0.00255067)
(-0.0845262 -3.94162e-19 0.0031882)
(-0.0840741 -3.38622e-19 0.00390888)
(-0.083523 -1.15793e-19 0.00471837)
(-0.0828613 -3.90957e-19 0.00562255)
(-0.0820768 6.19122e-20 0.00662718)
(-0.0811576 -4.57161e-19 0.00773884)
(-0.0800916 9.19178e-19 0.00896492)
(-0.0788662 6.21308e-20 0.0103139)
(-0.0774692 -3.0365e-19 0.0117955)
(-0.075889 -2.6493e-19 0.0134212)
(-0.0741154 -2.48201e-19 0.0152045)
(-0.0721397 -1.99349e-19 0.0171616)
(-0.0699566 -4.76611e-19 0.0193119)
(-0.0675653 4.69714e-20 0.0216789)
(-0.064972 5.80445e-19 0.02429)
(-0.0621934 4.8721e-20 0.0271761)
(-0.0592605 5.83761e-19 0.0303704)
(-0.0562243 -7.92697e-20 0.0339047)
(-0.0531609 -3.61867e-20 0.0378021)
(-0.0501741 4.01073e-19 0.0420647)
(-0.0473932 4.91784e-20 0.0466581)
(-0.0449608 4.06166e-19 0.0514923)
(-0.0430008 6.54017e-20 0.0564069)
(-0.0415479 3.12607e-19 0.0611891)
(-0.0405229 -7.84378e-20 0.0656379)
(-0.0397828 -4.27164e-20 0.0696176)
(-0.039183 2.03014e-19 0.0730641)
(-0.038608 4.16546e-20 0.0759664)
(-0.0379768 1.96035e-19 0.0783446)
(-0.0372367 6.70893e-20 0.0802318)
(-0.0363565 5.07837e-19 0.0816651)
(-0.0353241 3.40411e-19 0.0826827)
(-0.034143 2.12312e-20 0.0833165)
(-0.0328178 3.30591e-19 0.0835909)
(-0.031346 3.73162e-19 0.0835292)
(-0.0297288 -3.52367e-19 0.0831555)
(-0.0279729 -5.33794e-20 0.0824922)
(-0.0260875 3.08811e-19 0.0815603)
(-0.0240823 5.0208e-20 0.0803803)
(-0.0219673 2.30126e-19 0.0789731)
(-0.0197527 6.43038e-20 0.0773609)
(-0.0174493 4.29794e-19 0.0755668)
(-0.0150683 -1.30644e-19 0.0736152)
(-0.0126214 -2.66321e-20 0.0715318)
(-0.0101216 3.26358e-19 0.0693438)
(-0.00758334 1.36277e-19 0.0670795)
(-0.00502442 -2.08346e-19 0.0647684)
(-0.00246837 -4.52055e-20 0.0624389)
(5.46169e-05 -2.77656e-21 0.0601144)
(0.00251447 2.35613e-19 0.057825)
(0.00486352 2.70109e-20 0.0555784)
(0.00705432 -4.34466e-19 0.0533711)
(0.00904466 -2.38e-20 0.0511836)
(0.010802 4.1489e-19 0.0489762)
(0.012318 4.61241e-20 0.0467011)
(0.0136097 -3.17629e-19 0.0443141)
(0.0147036 3.13515e-19 0.0417849)
(0.0156226 8.95735e-20 0.0390917)
(0.0163963 -1.78205e-19 0.0362134)
(0.0170696 6.73746e-20 0.0331356)
(0.0176946 1.22067e-19 0.0298606)
(0.0183173 3.66136e-20 0.0264106)
(0.0189719 -1.94956e-19 0.022823)
(0.0196781 1.92237e-19 0.0191454)
(0.0204373 3.85269e-20 0.0154293)
(0.021229 -1.08125e-19 0.0117235)
(0.0220086 7.87756e-20 0.00805991)
(0.0227193 2.99597e-20 0.00446599)
(0.0232912 2.41296e-20 0.000877279)
(0.0236965 8.61176e-21 -0.00269516)
(0.0239881 7.34984e-20 -0.00632732)
(0.0240845 4.43322e-20 -0.00995508)
(0.0240514 1.62467e-20 -0.0136221)
(0.0236381 1.12439e-19 -0.0172172)
(0.0231174 1.29721e-20 -0.0209407)
(0.0215361 1.06388e-19 -0.0244963)
(0.0182604 1.22065e-19 -0.0283622)
(0.0103839 -4.51226e-20 -0.0334086)
(-0.000972843 -3.30278e-19 -0.0385571)
(-0.132209 -4.75237e-18 -0.0346308)
(-0.020295 1.48339e-18 0.051049)
(-0.00945832 -4.3884e-19 -0.0742819)
(-0.0556083 9.7276e-22 -0.050309)
(-0.0358398 1.69982e-19 -0.090374)
(-0.0395953 6.13544e-20 -0.0944389)
(-0.0339986 -2.99323e-19 -0.105235)
(-0.0285159 -1.23647e-19 -0.111141)
(-0.0223114 4.0959e-19 -0.115198)
(-0.015744 -2.96029e-19 -0.117641)
(-0.0085007 -1.78594e-19 -0.118911)
(-0.0843266 -4.57957e-23 -5.88952e-05)
(-0.0852582 5.00719e-22 -0.000173513)
(-0.0853509 1.54043e-20 -0.000291428)
(-0.0853845 3.84826e-19 -0.000391906)
(-0.085416 7.63271e-20 -0.000475298)
(-0.0854577 -5.2133e-20 -0.000535073)
(-0.0855112 -4.60666e-20 -0.000568536)
(-0.0855751 1.22638e-20 -0.000573727)
(-0.0856472 3.90598e-19 -0.000548722)
(-0.0857247 2.42575e-20 -0.000490676)
(-0.085804 4.5463e-19 -0.000395864)
(-0.0858801 6.29307e-20 -0.000259998)
(-0.0859469 4.03498e-19 -7.87114e-05)
(-0.0859977 2.35206e-20 0.000152895)
(-0.0860247 3.37665e-19 0.00043903)
(-0.086017 6.64287e-20 0.000781287)
(-0.0859698 3.63447e-19 0.00118511)
(-0.0858781 3.90749e-19 0.00165983)
(-0.0857339 4.52912e-19 0.00221074)
(-0.085528 3.8625e-19 0.0028437)
(-0.08525 3.65221e-19 0.00356467)
(-0.0848893 3.51907e-19 0.00437891)
(-0.0844353 -4.0411e-19 0.00529204)
(-0.0838764 -5.2287e-19 0.0063102)
(-0.0832012 6.60598e-19 0.0074399)
(-0.0823984 -7.00136e-19 0.00868828)
(-0.0814564 1.10207e-18 0.0100628)
(-0.080364 4.69237e-19 0.0115717)
(-0.0791102 3.12097e-19 0.0132242)
(-0.0776851 3.26931e-19 0.0150308)
(-0.0760801 3.49971e-19 0.0170032)
(-0.0742893 -3.05772e-19 0.0191548)
(-0.0723099 -6.53034e-19 0.021501)
(-0.0701441 -1.98293e-19 0.0240591)
(-0.0678008 1.79954e-19 0.026848)
(-0.0652982 -8.4819e-20 0.0298873)
(-0.0626664 2.94121e-20 0.0331946)
(-0.05995 -1.69748e-19 0.0367832)
(-0.0572106 -2.22205e-19 0.0406555)