/*--------------------------------*- C++ -*----------------------------------*\
| =========                 |                                                 |
| \\      /  F ield         | OpenFOAM: The Open Source CFD Toolbox           |
|  \\    /   O peration     | Version:  v2106                                 |
|   \\  /    A nd           | Website:  www.openfoam.com                      |
|    \\/     M anipulation  |                                                 |
\*---------------------------------------------------------------------------*/
FoamFile
{
    version     2.0;
    format      ascii;
    arch        "LSB;label=32;scalar=64";
    class       volScalarField;
    location    "0.1";
    object      p_rgh;
}
// * * * * * * * * * * * * * * * * * * * * * * * * * * * * * * * * * * * * * //

dimensions      [1 -1 -2 0 0 0 0];

internalField   nonuniform List<scalar> 
29678
(
-9.58595e-05
-9.54725e-05
-9.53312e-05
-9.48491e-05
-9.41936e-05
-9.33443e-05
-9.22361e-05
-9.09315e-05
-8.94416e-05
-8.77672e-05
-8.59109e-05
-8.38756e-05
-8.16689e-05
-7.92475e-05
-7.66188e-05
-7.38495e-05
-7.09542e-05
-6.7942e-05
-6.48024e-05
-6.14196e-05
-5.79034e-05
-5.42513e-05
-5.04761e-05
-4.65036e-05
-4.23789e-05
-3.81831e-05
-3.39241e-05
-2.95879e-05
-2.51494e-05
-2.05906e-05
-1.59168e-05
-1.11587e-05
-6.35663e-06
-1.54158e-06
3.27723e-06
8.16497e-06
1.31201e-05
1.80807e-05
2.3042e-05
2.79934e-05
3.29238e-05
3.78221e-05
4.26769e-05
4.74766e-05
5.22028e-05
5.69192e-05
6.15556e-05
6.604e-05
7.03528e-05
7.45577e-05
7.86989e-05
8.26973e-05
8.6551e-05
9.03005e-05
9.38827e-05
9.72518e-05
0.000100476
0.000103566
0.000106523
0.000109394
0.000112094
0.000114598
0.000116922
0.000119123
0.000121275
0.000123348
0.000125351
0.000127262
0.000129122
0.000130889
0.000132454
0.000134464
0.000135638
0.000137311
0.000139196
0.000141224
0.000143389
0.000145721
0.000148158
0.000150671
0.000153274
0.000156032
0.000158876
0.000161796
0.000164791
0.000167866
0.00017102
0.000174226
0.000177438
0.000180596
0.000183641
0.000186511
0.000189071
0.000191125
0.000192326
0.000192493
0.00018866
0.000189024
0.000162061
0.000179904
0.000209578
3.54899e-06
1.64233e-06
2.65988e-06
2.14215e-06
2.05537e-06
1.68336e-06
1.2663e-06
7.86112e-07
2.8166e-07
-0.000286905
-0.00028621
-0.000285522
-0.000284171
-0.000282265
-0.00027965
-0.000276316
-0.000272416
-0.000267952
-0.000262931
-0.000257359
-0.000251246
-0.000244603
-0.000237125
-0.00022923
-0.000220968
-0.000212381
-0.000203458
-0.000193979
-0.00018386
-0.000173312
-0.00016235
-0.000150913
-0.000138785
-0.000126426
-0.000113913
-0.000101227
-8.82728e-05
-7.49481e-05
-6.12202e-05
-4.71593e-05
-3.29073e-05
-1.85995e-05
-4.29141e-06
1.00606e-05
2.48295e-05
3.9652e-05
5.45065e-05
6.93643e-05
8.41933e-05
9.89604e-05
0.000113631
0.000128171
0.000142545
0.00015681
0.000171034
0.000184827
0.000198074
0.000210824
0.000223523
0.000235856
0.000247766
0.00025926
0.000270435
0.000280941
0.000290965
0.000300599
0.000309743
0.000318631
0.000327109
0.000334934
0.000342108
0.000348806
0.000355291
0.000361565
0.00036761
0.000373338
0.000378773
0.00038414
0.000389429
0.000394796
0.000399549
0.000405288
0.000410899
0.000416652
0.000422639
0.00042892
0.000435539
0.000442507
0.000449843
0.000457648
0.000465889
0.000474442
0.000483281
0.000492414
0.000501858
0.000511584
0.000521494
0.000531467
0.000541392
0.000551206
0.000560749
0.0005698
0.000578156
0.000585361
0.000591085
0.000592743
0.000596193
0.000571726
0.000586379
0.00061167
1.01324e-05
9.14312e-06
8.90144e-06
7.94748e-06
6.91319e-06
5.61869e-06
4.15856e-06
2.56349e-06
9.08295e-07
-0.000477584
-0.000476879
-0.000475723
-0.000473515
-0.000470254
-0.000465677
-0.000460138
-0.000453624
-0.000446188
-0.00043782
-0.000428533
-0.00041836
-0.000406921
-0.000394573
-0.00038154
-0.000367918
-0.000353728
-0.000338894
-0.000322894
-0.000306042
-0.000288465
-0.000270188
-0.000250687
-0.000230615
-0.000210215
-0.000189534
-0.000168463
-0.000146822
-0.000124494
-0.000101518
-7.80825e-05
-5.44294e-05
-3.07169e-05
-6.93966e-06
1.72688e-05
4.1859e-05
6.65602e-05
9.13231e-05
0.000116095
0.000140821
0.000165446
0.000189911
0.000214159
0.000238167
0.000262274
0.000285836
0.000308579
0.00033047
0.000351956
0.000373149
0.000393695
0.000413528
0.000432809
0.000451167
0.000468656
0.000485477
0.000501495
0.000516782
0.000531691
0.000545565
0.000558294
0.000570084
0.000581363
0.000592282
0.000602781
0.000612782
0.000622068
0.000631098
0.00063999
0.000648742
0.000657446
0.000666085
0.000675023
0.000684218
0.000693741
0.000703679
0.000714111
0.000725099
0.000736684
0.000748919
0.000762012
0.0007757
0.000789931
0.000804697
0.000820019
0.000835888
0.000852214
0.000868829
0.000885576
0.000902384
0.000919075
0.000935375
0.000951065
0.000965818
0.000979182
0.000990806
0.000999208
0.00100827
0.00100338
0.00101795
0.00102078
1.69026e-05
1.57315e-05
1.50962e-05
1.35987e-05
1.18069e-05
9.61051e-06
7.11226e-06
4.38469e-06
1.55026e-06
-0.000668001
-0.000667463
-0.000665733
-0.000662546
-0.000657519
-0.000651123
-0.000643376
-0.00063429
-0.000623883
-0.000612169
-0.000599168
-0.000584696
-0.000568712
-0.000551611
-0.000533522
-0.00051453
-0.000494632
-0.000473716
-0.000451275
-0.000427691
-0.000403084
-0.0003771
-0.000349976
-0.000322169
-0.000293854
-0.00026501
-0.000235466
-0.000205031
-0.000173642
-0.000141435
-0.000108682
-7.56513e-05
-4.2464e-05
-9.05132e-06
2.50949e-05
5.95278e-05
9.41257e-05
0.000128816
0.000163644
0.000198198
0.000232673
0.000266956
0.000300937
0.000334971
0.000368579
0.00040131
0.000432959
0.00046363
0.000494041
0.000523713
0.000552478
0.000580266
0.000607126
0.000632781
0.000657416
0.000680936
0.000703323
0.000724807
0.000745369
0.000764398
0.000781999
0.000798679
0.000814701
0.000830001
0.000844705
0.000858395
0.000871074
0.000883639
0.000895942
0.000908047
0.000920084
0.000932181
0.000944523
0.000957254
0.000970465
0.00098427
0.000998775
0.00101407
0.00103022
0.00104739
0.00106562
0.00108474
0.0011047
0.00112548
0.00114709
0.00116945
0.00119244
0.00121587
0.00123964
0.00126357
0.00128733
0.00131066
0.00133328
0.00135475
0.00137466
0.00139258
0.00140746
0.00142228
0.00142582
0.00144611
0.00144691
2.43512e-05
2.2848e-05
2.18569e-05
1.97333e-05
1.71129e-05
1.39283e-05
1.0304e-05
6.35121e-06
2.24354e-06
-0.000857952
-0.000857597
-0.000855164
-0.000850491
-0.000844023
-0.000835803
-0.000825846
-0.000814169
-0.000800792
-0.000785735
-0.000768903
-0.00075017
-0.000729876
-0.000708108
-0.000684963
-0.000660509
-0.000634746
-0.000607588
-0.000578906
-0.000548589
-0.000516644
-0.000483281
-0.00044876
-0.00041333
-0.000377101
-0.000340007
-0.000301879
-0.000262584
-0.000222143
-0.000180758
-0.000138717
-9.62578e-05
-5.34533e-05
-1.02004e-05
3.37879e-05
7.80892e-05
0.000122658
0.000167523
0.000212236
0.00025669
0.00030095
0.000345129
0.000389204
0.000432921
0.000475877
0.000517737
0.000558418
0.000598148
0.000637412
0.000675589
0.000712594
0.000748345
0.000782788
0.00081586
0.000847515
0.000877719
0.000906451
0.000933936
0.000959896
0.000984016
0.00100686
0.00102852
0.00104896
0.00106877
0.00108732
0.00110446
0.00112049
0.00113649
0.00115207
0.00116739
0.00118263
0.001198
0.00121369
0.00122977
0.00124654
0.0012641
0.00128259
0.00130212
0.00132279
0.00134479
0.00136814
0.00139272
0.00141846
0.00144533
0.00147329
0.00150224
0.00153205
0.00156257
0.00159364
0.00162489
0.00165603
0.00168671
0.00171658
0.00174519
0.00177207
0.00179676
0.00181829
0.00183942
0.00184819
0.00187656
0.00187698
3.25864e-05
3.06445e-05
2.92975e-05
2.64791e-05
2.29581e-05
1.86878e-05
1.38244e-05
8.52067e-06
3.00853e-06
-0.00104713
-0.00104679
-0.00104322
-0.00103743
-0.00102952
-0.00101947
-0.00100731
-0.000993038
-0.000976694
-0.000958064
-0.000937399
-0.00091481
-0.000890297
-0.000863875
-0.000835603
-0.000805556
-0.000773788
-0.000740297
-0.00070504
-0.000667986
-0.000629178
-0.000588759
-0.000546927
-0.00050385
-0.000459596
-0.000414119
-0.000367297
-0.000319072
-0.000269732
-0.00021922
-0.000167874
-0.00011588
-6.33054e-05
-1.01314e-05
4.36595e-05
9.799e-05
0.000152665
0.000207437
0.000262109
0.000316605
0.000370936
0.000425093
0.000478927
0.000532145
0.000584415
0.000635526
0.000685467
0.000734384
0.000782438
0.000829154
0.000874425
0.000918155
0.000960264
0.00100068
0.00103935
0.00107622
0.00111126
0.00114448
0.00117589
0.00120551
0.00123341
0.00125967
0.00128476
0.00130855
0.00133061
0.00135106
0.00137056
0.00138976
0.00140843
0.00142678
0.00144521
0.00146373
0.00148249
0.00150176
0.00152188
0.00154302
0.00156529
0.00158896
0.00161407
0.00164081
0.00166927
0.00169933
0.00173089
0.0017639
0.00179831
0.00183403
0.00187093
0.00190885
0.00194741
0.0019863
0.00202517
0.00206359
0.00210113
0.00213731
0.00217165
0.00220355
0.00223203
0.00225994
0.00227371
0.00231014
0.00231009
4.18759e-05
3.94239e-05
3.76774e-05
3.40693e-05
2.95373e-05
2.40447e-05
1.7787e-05
1.09626e-05
3.86963e-06
-0.00123516
-0.00123426
-0.00123001
-0.00122315
-0.00121379
-0.00120191
-0.00118754
-0.00117054
-0.00115088
-0.00112896
-0.00110485
-0.00107848
-0.00104977
-0.00101865
-0.000985149
-0.000949397
-0.000911554
-0.000871744
-0.000830023
-0.000786392
-0.000740848
-0.000693429
-0.000644227
-0.000593354
-0.000540904
-0.000486909
-0.000431257
-0.000374236
-0.000315914
-0.000256434
-0.0001958
-0.000134156
-7.17125e-05
-8.56999e-06
5.51793e-05
0.000119421
0.000184005
0.000248764
0.00031354
0.0003782
0.000442626
0.000506676
0.000570162
0.000632861
0.000694575
0.000755172
0.000814582
0.000872738
0.000929509
0.000984783
0.00103836
0.00109009
0.00113988
0.00118765
0.00123331
0.00127682
0.00131815
0.00135727
0.00139421
0.001429
0.00146172
0.00149252
0.00152197
0.00154936
0.00157472
0.00159846
0.00162135
0.00164353
0.00166506
0.00168647
0.00170763
0.00172879
0.00175038
0.00177273
0.00179614
0.00182074
0.00184669
0.00187425
0.00190372
0.00193515
0.00196868
0.00200419
0.00204159
0.00208083
0.00212188
0.00216465
0.00220894
0.00225445
0.00230083
0.00234772
0.00239471
0.00244133
0.00248707
0.00253137
0.00257364
0.00261327
0.00264914
0.0026843
0.00270319
0.00274796
0.00274749
5.25108e-05
4.94621e-05
4.72612e-05
4.27454e-05
3.7059e-05
3.01688e-05
2.23173e-05
1.37543e-05
4.85407e-06
-0.00142138
-0.00142028
-0.00141534
-0.00140741
-0.0013966
-0.0013829
-0.00136608
-0.00134618
-0.00132364
-0.0012986
-0.00127109
-0.00124095
-0.00120799
-0.0011721
-0.0011333
-0.0010918
-0.00104792
-0.0010019
-0.000953864
-0.000903783
-0.000851542
-0.000797041
-0.000740286
-0.00068141
-0.000620608
-0.000558097
-0.000493854
-0.000428025
-0.000360688
-0.000292007
-0.000222084
-0.000150795
-7.84722e-05
-5.42555e-06
6.81954e-05
0.000142315
0.000216874
0.00029176
0.000366769
0.000441637
0.000516105
0.000589971
0.000663112
0.000735441
0.000806848
0.000877157
0.000946127
0.0010135
0.00107907
0.00114285
0.00120477
0.00126455
0.00132202
0.00137715
0.00142982
0.00147995
0.00152751
0.00157247
0.00161486
0.00165472
0.00169212
0.00172754
0.00176068
0.0017914
0.00182002
0.00184705
0.00187301
0.00189802
0.00192236
0.00194608
0.0019695
0.00199308
0.00201731
0.00204255
0.00206898
0.00209684
0.0021263
0.00215769
0.00219135
0.00222741
0.00226595
0.00230689
0.00235019
0.00239584
0.00244379
0.00249386
0.00254578
0.00259919
0.0026537
0.00270901
0.00276461
0.00281994
0.00287443
0.00292744
0.0029783
0.00302628
0.00307009
0.00311316
0.00313744
0.00319148
0.0031908
6.48274e-05
6.10734e-05
5.83528e-05
5.27831e-05
4.57619e-05
3.72545e-05
2.7559e-05
1.69843e-05
5.99298e-06
-0.00160592
-0.00160462
-0.001599
-0.00159
-0.00157774
-0.00156205
-0.00154278
-0.00152031
-0.00149491
-0.00146677
-0.00143585
-0.00140174
-0.00136413
-0.00132354
-0.00127979
-0.0012326
-0.0011828
-0.00113073
-0.00107651
-0.00102003
-0.000960907
-0.000898757
-0.00083427
-0.000767537
-0.000698403
-0.000627371
-0.000554713
-0.000480247
-0.000403879
-0.000325976
-0.000246653
-0.000165608
-8.34748e-05
-6.22097e-07
8.28198e-05
0.000166865
0.000251528
0.000336671
0.000421972
0.000507017
0.000591471
0.000675181
0.000758149
0.000840381
0.00092173
0.00100186
0.00108035
0.00115686
0.00123125
0.00130375
0.00137406
0.00144191
0.00150727
0.00156992
0.00162944
0.00168601
0.00173976
0.0017905
0.00183825
0.00188305
0.00192518
0.00196463
0.00200119
0.00203518
0.00206702
0.00209717
0.00212592
0.00215343
0.00217984
0.00220547
0.00223085
0.00225673
0.00228329
0.00231101
0.00234022
0.00237103
0.00240379
0.00243886
0.00247657
0.00251714
0.00256062
0.00260702
0.00265635
0.0027086
0.00276365
0.00282123
0.00288101
0.00294263
0.00300573
0.00306998
0.00313473
0.00319938
0.00326326
0.00332566
0.00338582
0.0034429
0.00349539
0.00354722
0.00357742
0.00364214
0.00364144
7.92148e-05
7.46224e-05
7.1303e-05
6.44999e-05
5.59213e-05
4.5526e-05
3.36778e-05
2.07547e-05
7.32234e-06
-0.00178858
-0.00178652
-0.00178044
-0.00177055
-0.00175687
-0.00173925
-0.00171777
-0.00169273
-0.00166447
-0.00163319
-0.00159881
-0.00156045
-0.00151846
-0.00147314
-0.00142441
-0.00137166
-0.0013161
-0.00125812
-0.00119779
-0.00113479
-0.00106806
-0.000998611
-0.00092654
-0.000851749
-0.000774147
-0.000694718
-0.000613614
-0.000530717
-0.000445301
-0.000358153
-0.000269269
-0.000178491
-8.66435e-05
5.95463e-06
9.92509e-05
0.000193342
0.000288241
0.000383711
0.000479283
0.000574459
0.000668937
0.000762679
0.00085577
0.000948183
0.00103961
0.00112954
0.00121747
0.00130314
0.00138653
0.00146785
0.00154673
0.0016231
0.00169638
0.00176614
0.00183232
0.00189545
0.00195534
0.00201179
0.00206479
0.00211461
0.00216109
0.00220413
0.00224405
0.00228133
0.00231619
0.00234909
0.00238014
0.00240952
0.00243756
0.00246476
0.00249205
0.00251974
0.00254819
0.00257793
0.0026095
0.00264297
0.00267875
0.00271728
0.00275891
0.00280384
0.00285221
0.00290412
0.00295962
0.00301862
0.00308092
0.00314621
0.00321415
0.00328444
0.0033567
0.00343041
0.00350499
0.00357963
0.00365357
0.00372614
0.00379644
0.00386349
0.00392558
0.00398723
0.00402405
0.00410121
0.00410066
9.61269e-05
9.05356e-05
8.65206e-05
7.8266e-05
6.78582e-05
5.52446e-05
4.0867e-05
2.51846e-05
8.88414e-06
-0.00196886
-0.00196626
-0.00195971
-0.00194894
-0.00193394
-0.00191454
-0.00189084
-0.0018632
-0.00183204
-0.00179757
-0.00175966
-0.00171715
-0.00167079
-0.00162074
-0.00156698
-0.00150882
-0.00144766
-0.00138386
-0.00131739
-0.00124702
-0.00117331
-0.00109657
-0.00101692
-0.000933683
-0.00084784
-0.000760139
-0.000670633
-0.000579036
-0.00048478
-0.000388362
-0.000289751
-0.000189371
-8.78673e-05
1.45017e-05
0.000117768
0.000222044
0.000327261
0.000433045
0.000538842
0.000644182
0.000748872
0.000852955
0.000956475
0.00105923
0.00116073
0.00126038
0.00135776
0.00145276
0.00154546
0.00163585
0.0017236
0.00180815
0.00188898
0.00196574
0.00203884
0.00210871
0.00217471
0.00223678
0.00229525
0.00234967
0.00240002
0.00244662
0.00248996
0.00253017
0.00256777
0.00260285
0.00263563
0.00266641
0.00269569
0.00272416
0.00275282
0.00278181
0.00281168
0.00284306
0.00287651
0.00291225
0.00295073
0.00299245
0.00303777
0.00308694
0.00314018
0.00319764
0.00325938
0.00332522
0.00339492
0.0034682
0.00354475
0.00362425
0.00370627
0.00379015
0.00387515
0.00396044
0.00404529
0.00412893
0.0042103
0.00428835
0.00436113
0.00443377
0.00447813
0.00456981
0.00456959
0.000116098
0.000109315
0.000104486
9.45162e-05
8.19497e-05
6.67173e-05
4.93538e-05
3.0414e-05
1.07277e-05
-0.00214671
-0.00214383
-0.00213685
-0.00212522
-0.0021089
-0.00208768
-0.00206172
-0.00203144
-0.00199733
-0.00195962
-0.00191813
-0.00187165
-0.00182093
-0.00176618
-0.00170735
-0.00164391
-0.00157723
-0.00150761
-0.00143449
-0.0013572
-0.00127648
-0.00119245
-0.00110501
-0.00101347
-0.000919558
-0.00082367
-0.000725723
-0.000625338
-0.000522151
-0.000416299
-0.000308083
-0.000198145
-8.69643e-05
2.52879e-05
0.000138674
0.000253236
0.000368774
0.000484825
0.000600863
0.000716535
0.000831743
0.000946487
0.00106062
0.00117373
0.00128522
0.00139459
0.00150159
0.00160625
0.00170852
0.00180813
0.00190448
0.00199698
0.00208527
0.00216936
0.00224987
0.00232628
0.00239834
0.00246637
0.00252973
0.00258838
0.00264258
0.00269275
0.00273915
0.00278212
0.00282183
0.00285852
0.0028925
0.00292426
0.00295441
0.00298369
0.00301304
0.00304278
0.00307354
0.00310604
0.00314084
0.00317838
0.00321921
0.00326378
0.00331253
0.00336578
0.00342383
0.00348685
0.00355485
0.00362765
0.00370499
0.00378665
0.00387234
0.00396164
0.00405399
0.00414864
0.00424478
0.00434158
0.00443832
0.00453401
0.00462753
0.00471775
0.00480236
0.0048874
0.00494042
0.00504903
0.00504933
0.00013976
0.000131552
0.000125767
0.000113764
9.8641e-05
8.03067e-05
5.94064e-05
3.66081e-05
1.29113e-05
-0.00232213
-0.00231916
-0.00231173
-0.0022992
-0.00228143
-0.00225842
-0.00223014
-0.0021972
-0.00216012
-0.00211914
-0.00207405
-0.00202375
-0.0019687
-0.00190926
-0.00184535
-0.0017767
-0.00170451
-0.00162899
-0.00154909
-0.00146512
-0.00137743
-0.00128613
-0.00119053
-0.00109119
-0.000989355
-0.00088528
-0.000778778
-0.000669462
-0.000557099
-0.000441838
-0.000324167
-0.000204655
-8.3693e-05
3.85976e-05
0.000162224
0.000287098
0.000412915
0.000539232
0.000665652
0.000791945
0.000917993
0.0010436
0.00116838
0.00129176
0.00141322
0.00153249
0.00164947
0.00176409
0.00187604
0.00198473
0.0020895
0.00218992
0.00228594
0.00237798
0.00246568
0.00254866
0.00262713
0.00270046
0.00276848
0.00283135
0.00288941
0.00294293
0.00299215
0.00303725
0.00307849
0.00311626
0.003151
0.00318331
0.00321386
0.00324341
0.00327273
0.00330253
0.00333353
0.00336646
0.00340201
0.00344087
0.00348359
0.00353064
0.00358247
0.00363959
0.00370237
0.0037709
0.00384518
0.00392512
0.00401047
0.00410101
0.00419637
0.00429603
0.00439932
0.00450541
0.00461353
0.00472283
0.00483247
0.00494129
0.00504815
0.00515175
0.00524959
0.00534867
0.00541161
0.00553982
0.00554087
0.000167862
0.00015795
0.000151037
0.000136618
0.00011846
9.64425e-05
7.13425e-05
4.39627e-05
1.55041e-05
-0.00249501
-0.00249206
-0.00248412
-0.00247054
-0.00245114
-0.00242647
-0.00239587
-0.00236027
-0.00232024
-0.002276
-0.00222732
-0.00217329
-0.00211392
-0.00204982
-0.0019808
-0.00190693
-0.00182918
-0.00174767
-0.00166127
-0.00157066
-0.001476
-0.00137744
-0.00127384
-0.0011669
-0.00105718
-0.000944832
-0.000829618
-0.000711242
-0.000589618
-0.000464998
-0.000337864
-0.000208695
-7.78047e-05
5.46586e-05
0.000188576
0.000323733
0.000459816
0.000596511
0.000733575
0.000870806
0.00100791
0.00114442
0.00127974
0.00141336
0.00154499
0.00167452
0.00180184
0.00192661
0.00204816
0.00216579
0.00227898
0.00238762
0.00249204
0.00259199
0.00268683
0.00277669
0.00286102
0.00293949
0.00301218
0.00307931
0.00314109
0.00319763
0.0032491
0.00329578
0.00333807
0.00337644
0.00341146
0.00344376
0.0034741
0.00350322
0.00353191
0.00356098
0.00359132
0.00362393
0.00365961
0.00369918
0.00374321
0.00379223
0.00384683
0.00390759
0.0039749
0.00404886
0.00412947
0.00421686
0.00431071
0.00441062
0.00451611
0.00462671
0.00474162
0.00486002
0.00498108
0.00510388
0.00522745
0.0053506
0.00547207
0.0055905
0.00570307
0.00581797
0.00589219
0.00604301
0.00604508
0.000201297
0.000189345
0.000181095
0.000163801
0.000142034
0.000115635
8.554e-05
5.27106e-05
1.85879e-05
-0.00266519
-0.00266228
-0.00265373
-0.0026388
-0.00261798
-0.0025916
-0.00255871
-0.00252051
-0.00247759
-0.00243013
-0.00237786
-0.0023201
-0.00225644
-0.0021877
-0.00211352
-0.00203441
-0.00195101
-0.00186341
-0.00177089
-0.00167364
-0.00157205
-0.00146582
-0.00135495
-0.0012405
-0.00112286
-0.00100208
-0.000878007
-0.000750498
-0.000619616
-0.000485649
-0.000349003
-0.000210056
-6.91047e-05
7.35988e-05
0.000217792
0.000363211
0.000509638
0.000657129
0.000804998
0.000953375
0.00110159
0.0012489
0.00139472
0.00153874
0.0016809
0.00182114
0.00195907
0.00209399
0.00222504
0.00235163
0.00247356
0.00259105
0.00270409
0.00281178
0.00291417
0.00301048
0.00310052
0.00318418
0.00326163
0.00333294
0.0033981
0.00345717
0.00351041
0.00355822
0.0036011
0.00363958
0.00367425
0.00370586
0.00373518
0.003763
0.00379015
0.0038176
0.0038465
0.00387812
0.00391321
0.00395268
0.0039973
0.00404775
0.00410484
0.004169
0.00424058
0.0043198
0.00440669
0.00450209
0.00460482
0.00471452
0.00483077
0.00495299
0.00508031
0.00521191
0.00534689
0.00548426
0.00562291
0.00576164
0.00589911
0.00603388
0.00616283
0.00629551
0.00638251
0.00655934
0.00656278
0.000241127
0.000226731
0.000216895
0.000196176
0.00017011
0.000138493
0.000102448
6.31287e-05
2.22604e-05
-0.00283244
-0.00282951
-0.00282027
-0.002804
-0.00278179
-0.00275361
-0.00271851
-0.00267781
-0.00263207
-0.00258142
-0.00252558
-0.00246401
-0.00239608
-0.00232271
-0.00224338
-0.00215896
-0.00206985
-0.00197613
-0.00187761
-0.00177396
-0.00166535
-0.00155178
-0.00143379
-0.00131179
-0.00118608
-0.00105672
-0.000923703
-0.000787068
-0.000646968
-0.000503652
-0.000357416
-0.000208575
-5.74881e-05
9.54523e-05
0.000249894
0.000405629
0.000562984
0.000721278
0.000880076
0.00103972
0.00119894
0.00135698
0.00151343
0.00166823
0.00182141
0.00197269
0.00212132
0.00226632
0.0024069
0.00254278
0.00267403
0.00280084
0.00292233
0.00303832
0.00314787
0.00325056
0.00334638
0.00343542
0.00351763
0.00359285
0.00366096
0.00372221
0.00377696
0.00382552
0.00386838
0.00390625
0.0039398
0.00396982
0.00399715
0.00402264
0.00404725
0.00407219
0.00409881
0.00412847
0.00416207
0.00420064
0.00424517
0.00429655
0.00435552
0.0044227
0.00449847
0.00458292
0.00467523
0.00477976
0.00489178
0.00501178
0.00513945
0.00527405
0.00541464
0.00556041
0.00571036
0.00586339
0.00601837
0.00617402
0.00632897
0.0064817
0.00662879
0.00678138
0.00688281
0.00708939
0.00709458
0.000288613
0.000271294
0.00025957
0.000234767
0.000203576
0.000165739
0.000122602
7.5546e-05
2.66376e-05
-0.00299652
-0.00299343
-0.00298341
-0.00296598
-0.00294238
-0.00291236
-0.00287515
-0.00283206
-0.00278357
-0.00272977
-0.00267036
-0.00260484
-0.00253271
-0.00245457
-0.00237028
-0.00228052
-0.00218568
-0.00208588
-0.00198102
-0.00187095
-0.00175564
-0.00163527
-0.00151011
-0.00138044
-0.0012465
-0.00110847
-0.000966526
-0.000820839
-0.000671575
-0.000518887
-0.000362974
-0.000204164
-4.29326e-05
0.000120212
0.000284927
0.000451319
0.000619604
0.000788829
0.000958945
0.00112976
0.0012999
0.00146875
0.00163616
0.00180225
0.00196688
0.00212937
0.00228866
0.00244377
0.0025942
0.00273996
0.00288111
0.00301733
0.00314782
0.00327168
0.00338831
0.00349757
0.00359951
0.00369405
0.00378088
0.00385966
0.00393047
0.00399372
0.00404953
0.0040983
0.00414055
0.00417701
0.00420851
0.00423591
0.00426013
0.00428216
0.00430318
0.00432461
0.00434794
0.0043745
0.00440549
0.00444224
0.00448585
0.00453734
0.00459764
0.00466746
0.00474739
0.00483797
0.00494026
0.0050497
0.00517057
0.00530139
0.00544113
0.00558889
0.00574369
0.00590468
0.00607073
0.00624062
0.00641323
0.0065872
0.00676115
0.00693355
0.00710067
0.0072755
0.00739301
0.00763352
0.00764095
0.00034519
0.000324447
0.000310471
0.000280799
0.000243494
0.000198235
0.000146638
9.03553e-05
3.18578e-05
-0.00315716
-0.0031538
-0.00314303
-0.00312458
-0.00309961
-0.0030677
-0.00302852
-0.00298312
-0.00293194
-0.00287502
-0.00281204
-0.00274253
-0.00266618
-0.00258339
-0.00249415
-0.00239907
-0.00229854
-0.00219274
-0.00208164
-0.00196518
-0.00184331
-0.00171608
-0.0015836
-0.0014461
-0.00130384
-0.00115716
-0.0010064
-0.000851771
-0.000693379
-0.000531267
-0.000365603
-0.0001968
-2.54532e-05
0.000147895
0.000323006
0.000500374
0.000679587
0.00085988
0.00104151
0.0012234
0.00140449
0.00158445
0.00176335
0.0019412
0.0021175
0.0022912
0.00246117
0.00262666
0.00278752
0.00294381
0.00309528
0.00324115
0.00338037
0.00351212
0.00363614
0.00375241
0.00386084
0.00396083
0.00405203
0.00413406
0.00420748
0.00427232
0.00432873
0.00437713
0.00441811
0.00445239
0.00448081
0.00450443
0.00452434
0.00454172
0.00455798
0.0045747
0.00459342
0.00461558
0.00464268
0.00467648
0.00471814
0.00476889
0.0048298
0.00490173
0.00498533
0.00508106
0.00518905
0.00530834
0.0054394
0.00558179
0.00573445
0.00589636
0.00606652
0.00624388
0.00642721
0.00661525
0.00680682
0.00700055
0.00719512
0.00738895
0.00757797
0.00777747
0.00791293
0.00819196
0.0082022
0.000412815
0.000387888
0.000371232
0.000335738
0.000291131
0.000237013
0.000175318
0.000108024
3.80854e-05
-0.00331416
-0.00331041
-0.00329899
-0.00327964
-0.00325331
-0.00321954
-0.00317846
-0.00313082
-0.00307698
-0.00301694
-0.00295042
-0.00287686
-0.00279635
-0.00270906
-0.00261494
-0.00251461
-0.00240847
-0.00229675
-0.0021795
-0.00205668
-0.00192818
-0.00179394
-0.00165398
-0.00150852
-0.00135796
-0.00120277
-0.00104335
-0.00087988
-0.000712352
-0.000540747
-0.000365283
-0.000186495
-5.04932e-06
0.000178577
0.000364295
0.000552728
0.000742993
0.000934649
0.00112766
0.00132061
0.00151291
0.00170447
0.00189536
0.00208526
0.00227327
0.00245818
0.00263904
0.00281546
0.00298743
0.00315476
0.00331674
0.00347222
0.00362022
0.00376025
0.00389222
0.004016
0.00413101
0.00423644
0.00433174
0.00441695
0.00449281
0.00455889
0.00461543
0.004663
0.00470194
0.00473296
0.00475719
0.00477583
0.00479014
0.00480156
0.00481167
0.00482215
0.00483463
0.00485084
0.00487275
0.00490227
0.0049408
0.00498979
0.00505049
0.00512391
0.00521078
0.00531157
0.00542635
0.00555488
0.00569686
0.00585154
0.00601807
0.00619528
0.00638205
0.00657707
0.00677899
0.00698655
0.00719843
0.00741339
0.00763004
0.00784696
0.00805992
0.0082867
0.00844213
0.00876471
0.00877841
0.000493572
0.000463631
0.000443777
0.000401324
0.000347993
0.000283293
0.000209544
0.000129108
4.5516e-05
-0.00346733
-0.00346316
-0.00345107
-0.00343101
-0.00340329
-0.00336776
-0.00332483
-0.00327496
-0.00321847
-0.00315532
-0.00308528
-0.00300774
-0.0029231
-0.00283147
-0.00273256
-0.00262708
-0.00251543
-0.00239787
-0.00227451
-0.00214528
-0.00201001
-0.00186859
-0.00172102
-0.00156762
-0.00140889
-0.00124539
-0.00107747
-0.000905204
-0.000728481
-0.000547306
-0.000362017
-0.000173257
1.83247e-05
0.000212385
0.000408953
0.00060841
0.000809858
0.00101317
0.00121735
0.00142156
0.00162551
0.00182923
0.00203241
0.00223445
0.00243414
0.0026304
0.00282263
0.00301067
0.00319435
0.00337302
0.00354554
0.00371076
0.00386795
0.00401692
0.00415748
0.00428908
0.00441069
0.00452139
0.00462081
0.00470944
0.00478745
0.00485443
0.0049108
0.00495676
0.00499263
0.00501941
0.0050385
0.00505096
0.00505822
0.00506199
0.00506423
0.00506657
0.00507096
0.00507955
0.00509472
0.00511841
0.00515241
0.00519845
0.00525797
0.00533218
0.00542193
0.00552773
0.00564974
0.00578774
0.00594118
0.00610913
0.00629061
0.00648447
0.00668925
0.00690333
0.00712519
0.00735362
0.0075872
0.00782464
0.00806481
0.00830658
0.00854545
0.00880224
0.00897975
0.00935146
0.00936935
0.000590028
0.000554089
0.000530408
0.000479634
0.000415875
0.000338533
0.000250388
0.000154267
5.43811e-05
-0.00361655
-0.00361201
-0.00359927
-0.00357828
-0.00354927
-0.00351221
-0.00346743
-0.00341533
-0.00335617
-0.00328993
-0.00321643
-0.00313503
-0.00304633
-0.00295048
-0.00284688
-0.00273636
-0.0026193
-0.00249597
-0.00236649
-0.00223075
-0.00208859
-0.00193986
-0.00178468
-0.00162347
-0.0014568
-0.00128519
-0.00110887
-0.00092776
-0.000741745
-0.000550935
-0.000355814
-0.00015707
4.47451e-05
0.000249434
0.000457053
0.000667561
0.000880523
0.00109515
0.00131063
0.00152649
0.00174275
0.0019588
0.00217449
0.00238863
0.00260009
0.0028081
0.00301236
0.00321269
0.0034085
0.00359867
0.00378191
0.00395728
0.0041244
0.00428305
0.00443268
0.00457222
0.00470041
0.00481647
0.00492027
0.00501253
0.0050925
0.00516006
0.00521571
0.00525918
0.00529115
0.00531293
0.00532559
0.00533041
0.00532905
0.00532335
0.00531557
0.00530764
0.00530193
0.00530107
0.0053075
0.00532356
0.00535134
0.00539299
0.00545022
0.00552441
0.00561658
0.00572732
0.0058568
0.00600474
0.00617045
0.00635288
0.00655082
0.00676273
0.00698697
0.00722162
0.00746501
0.00771563
0.0079721
0.00823326
0.00849832
0.00876647
0.00903307
0.0093226
0.00952444
0.00995177
0.00997461
0.000705262
0.000662139
0.000633876
0.000573147
0.000496914
0.000404465
0.000299128
0.000184283
6.49555e-05
-0.00376175
-0.00375693
-0.00374357
-0.00372162
-0.00369135
-0.00365276
-0.0036061
-0.00355174
-0.0034899
-0.00342061
-0.00334371
-0.00325864
-0.00316591
-0.00306571
-0.00295772
-0.00284227
-0.00271988
-0.00259084
-0.00245521
-0.0023129
-0.00216375
-0.00200772
-0.00184506
-0.00167626
-0.00150188
-0.0013223
-0.00113756
-0.000947514
-0.000752108
-0.000551628
-0.000346678
-0.000137911
7.4268e-05
0.000289757
0.000508535
0.000730347
0.000954597
0.00118055
0.00140766
0.00163576
0.00186439
0.00209326
0.0023214
0.00254767
0.00277121
0.0029916
0.00320862
0.00342176
0.00362997
0.00383187
0.00402629
0.00421258
0.00439046
0.00455941
0.00471838
0.00486595
0.00500092
0.00512273
0.00523163
0.00532738
0.00540922
0.00547708
0.00553121
0.00557153
0.00559907
0.00561463
0.00561942
0.00561497
0.0056031
0.00558593
0.00556583
0.00554538
0.00552734
0.00551453
0.0055099
0.00551603
0.00553569
0.0055713
0.00562489
0.00569811
0.00579219
0.00590778
0.00604507
0.0062037
0.00638283
0.00658118
0.0067971
0.00702879
0.00727411
0.00753099
0.00779751
0.00807172
0.00835226
0.00863829
0.00892928
0.00922493
0.00952074
0.00984555
0.0100741
0.0105651
0.0105937
0.000842963
0.00079123
0.00075747
0.000684822
0.000593663
0.000483153
0.000357279
0.000220085
7.75645e-05
-0.00390288
-0.00389788
-0.00388389
-0.00386095
-0.00382942
-0.00378925
-0.00374069
-0.00368405
-0.00361955
-0.00354724
-0.00346702
-0.00337847
-0.00328177
-0.00317727
-0.00306487
-0.00294458
-0.00281696
-0.00268225
-0.00254049
-0.00239159
-0.00223547
-0.00207226
-0.00190232
-0.00172618
-0.00154427
-0.00135675
-0.0011635
-0.000964389
-0.000759533
-0.000549396
-0.000334634
-0.000115789
0.000106872
0.000333265
0.00056322
0.0007963
0.00103189
0.00126943
0.00150861
0.00174919
0.00199072
0.00223232
0.00247291
0.00271154
0.00294773
0.00318147
0.00341178
0.00363798
0.00385889
0.00407299
0.00427935
0.00447749
0.00466688
0.00484655
0.00501508
0.005171
0.00531328
0.00544164
0.00555606
0.00565533
0.00573904
0.00580697
0.00585918
0.00589594
0.00591784
0.00592583
0.00592122
0.00590566
0.0058812
0.0058502
0.00581539
0.00577975
0.00574646
0.00571885
0.00570028
0.00569406
0.00570331
0.00573088
0.00577925
0.00585045
0.00594573
0.00606609
0.00621163
0.00638188
0.00657577
0.00679169
0.00702761
0.00728117
0.00754968
0.00783071
0.008122