/*--------------------------------*- C++ -*----------------------------------*\
| =========                 |                                                 |
| \\      /  F ield         | OpenFOAM: The Open Source CFD Toolbox           |
|  \\    /   O peration     | Version:  v2106                                 |
|   \\  /    A nd           | Website:  www.openfoam.com                      |
|    \\/     M anipulation  |                                                 |
\*---------------------------------------------------------------------------*/
FoamFile
{
    version     2.0;
    format      ascii;
    arch        "LSB;label=32;scalar=64";
    class       surfaceScalarField;
    location    "0.1";
    object      phi;
}
// * * * * * * * * * * * * * * * * * * * * * * * * * * * * * * * * * * * * * //

dimensions      [0 3 -1 0 0 0 0];

oriented        oriented;

internalField   nonuniform List<scalar> 
59425
(
1.23068e-13
2.54074e-11
6.86184e-14
2.5444e-11
7.0224e-14
2.54588e-11
8.1247e-14
2.5528e-11
1.04832e-13
2.56311e-11
1.40547e-13
2.57599e-11
1.75952e-13
2.58939e-11
2.08871e-13
2.60422e-11
2.40287e-13
2.62117e-11
2.71265e-13
2.64036e-11
3.02836e-13
2.66179e-11
3.36004e-13
2.68542e-11
3.71474e-13
2.71085e-11
4.0078e-13
2.73697e-11
4.16684e-13
2.76412e-11
4.24609e-13
2.79426e-11
4.33878e-13
2.8284e-11
4.54488e-13
2.86654e-11
4.90924e-13
2.90718e-11
5.25865e-13
2.94766e-11
5.60181e-13
2.98953e-11
5.95603e-13
3.03331e-11
6.33613e-13
3.07845e-11
6.60509e-13
3.12325e-11
6.70238e-13
3.16883e-11
6.72209e-13
3.2176e-11
6.77399e-13
3.27012e-11
6.91862e-13
3.32545e-11
7.1397e-13
3.38199e-11
7.36113e-13
3.43843e-11
7.50079e-13
3.49449e-11
7.52784e-13
3.55096e-11
7.48538e-13
3.60912e-11
7.46649e-13
3.66966e-11
7.55089e-13
3.73182e-11
7.6678e-13
3.79317e-11
7.72045e-13
3.85285e-11
7.71128e-13
3.91171e-11
7.647e-13
3.96987e-11
7.53165e-13
4.02701e-11
7.36758e-13
4.08273e-11
7.15422e-13
4.13651e-11
6.89233e-13
4.1879e-11
6.58305e-13
4.23628e-11
6.22428e-13
4.28055e-11
5.67843e-13
4.31883e-11
4.92196e-13
4.35206e-11
4.06617e-13
4.38182e-11
3.23911e-13
4.40745e-11
2.41506e-13
4.4256e-11
1.46161e-13
4.4337e-11
3.71802e-14
4.43192e-11
-8.60419e-14
4.41931e-11
-2.31238e-13
4.39405e-11
-3.96118e-13
4.35637e-11
-5.70338e-13
4.30577e-11
-7.55797e-13
4.23918e-11
-9.58246e-13
4.15399e-11
-1.18499e-12
4.04788e-11
-1.44953e-12
3.91882e-11
-1.74841e-12
3.76743e-11
-2.0698e-12
3.59341e-11
-2.40382e-12
3.39424e-11
-2.75047e-12
3.1657e-11
-3.12183e-12
2.90356e-11
-3.52245e-12
2.60603e-11
-3.95414e-12
2.27148e-11
-4.41182e-12
1.89813e-11
-4.8946e-12
1.48274e-11
-5.39531e-12
1.02248e-11
-5.88942e-12
5.14687e-12
-6.27378e-12
-4.06528e-13
-6.54714e-12
-6.45599e-12
-6.77002e-12
-1.30685e-11
-6.97977e-12
-2.02626e-11
-7.19942e-12
-2.80452e-11
-7.45646e-12
-3.64552e-11
-7.8096e-12
-4.55318e-11
-8.24477e-12
-5.52321e-11
-8.71747e-12
-6.55505e-11
-9.20339e-12
-7.65124e-11
-9.69823e-12
-8.81299e-11
-1.01885e-11
-1.0038e-10
-1.06594e-11
-1.1324e-10
-1.1098e-11
-1.26685e-10
-1.14954e-11
-1.40687e-10
-1.18457e-11
-1.55209e-10
-1.21425e-11
-1.70196e-10
-1.23738e-11
-1.85581e-10
-1.25209e-11
-2.01281e-10
-1.25588e-11
-2.17208e-10
-1.24552e-11
-2.33262e-10
-1.21533e-11
-2.49324e-10
-1.15531e-11
-2.65255e-10
-1.0468e-11
-2.80905e-10
-8.60965e-12
-2.96139e-10
-5.1589e-12
-3.11494e-10
-6.60205e-13
-3.31246e-10
6.92507e-12
-3.75119e-10
-3.17456e-12
-5.12269e-10
-3.61414e-10
-1.02564e-09
-3.79764e-10
-2.25723e-09
-1.29383e-10
-2.35887e-09
-7.45982e-12
-2.23271e-09
1.15646e-10
-2.03232e-09
1.92068e-10
-1.75907e-09
2.4857e-10
-1.43439e-09
2.85917e-10
-1.06437e-09
3.07895e-10
-6.76603e-10
-3.51741e-10
4.75487e-14
2.53597e-11
7.58432e-14
2.54146e-11
9.2005e-14
2.54417e-11
1.1623e-13
2.55028e-11
1.49428e-13
2.5597e-11
1.91889e-13
2.57165e-11
2.34878e-13
2.585e-11
2.75564e-13
2.60006e-11
3.14684e-13
2.61717e-11
3.53359e-13
2.6364e-11
3.92641e-13
2.65777e-11
4.33617e-13
2.68123e-11
4.75933e-13
2.70653e-11
5.12705e-13
2.7332e-11
5.38034e-13
2.7615e-11
5.55772e-13
2.7924e-11
5.74457e-13
2.82645e-11
6.02995e-13
2.86361e-11
6.43542e-13
2.90304e-11
6.84676e-13
2.94347e-11
7.24864e-13
2.98544e-11
7.66121e-13
3.02911e-11
8.08093e-13
3.07418e-11
8.40462e-13
3.11994e-11
8.57839e-13
3.16702e-11
8.67213e-13
3.21659e-11
8.78248e-13
3.26895e-11
8.96493e-13
3.32357e-11
9.20654e-13
3.37952e-11
9.44087e-13
3.43603e-11
9.59487e-13
3.49289e-11
9.63907e-13
3.55047e-11
9.60986e-13
3.60936e-11
9.58778e-13
3.66983e-11
9.63253e-13
3.73132e-11
9.69202e-13
3.79253e-11
9.68657e-13
3.85287e-11
9.60253e-13
3.91251e-11
9.44634e-13
3.9714e-11
9.22087e-13
4.02923e-11
8.92525e-13
4.08565e-11
8.55589e-13
4.14017e-11
8.11197e-13
4.19231e-11
7.5947e-13
4.24142e-11
6.98107e-13
4.28666e-11
6.16671e-13
4.32694e-11
5.12117e-13
4.36249e-11
3.93236e-13
4.39369e-11
2.70302e-13
4.41973e-11
1.41163e-13
4.4385e-11
-4.34692e-15
4.44824e-11
-1.69054e-13
4.44838e-11
-3.54842e-13
4.43788e-11
-5.67894e-13
4.41535e-11
-8.06499e-13
4.38022e-11
-1.06353e-12
4.33147e-11
-1.34012e-12
4.26684e-11
-1.64192e-12
4.18417e-11
-1.97737e-12
4.08143e-11
-2.35762e-12
3.95685e-11
-2.78162e-12
3.80985e-11
-3.23963e-12
3.63923e-11
-3.72295e-12
3.4426e-11
-4.23205e-12
3.21663e-11
-4.77654e-12
2.95803e-11
-5.36237e-12
2.66464e-11
-5.99165e-12
2.33443e-11
-6.66192e-12
1.96518e-11
-7.37383e-12
1.55395e-11
-8.12941e-12
1.09806e-11
-8.93206e-12
5.94975e-12
-9.76531e-12
4.26932e-13
-1.06051e-11
-5.61604e-12
-1.1455e-11
-1.22183e-11
-1.23191e-11
-1.93984e-11
-1.31909e-11
-2.71733e-11
-1.40827e-11
-3.55633e-11
-1.50257e-11
-4.45887e-11
-1.60063e-11
-5.42515e-11
-1.69964e-11
-6.45604e-11
-1.79818e-11
-7.5527e-11
-1.89574e-11
-8.71544e-11
-1.99107e-11
-9.94272e-11
-2.0825e-11
-1.12326e-10
-2.16828e-11
-1.25828e-10
-2.24682e-11
-1.39902e-10
-2.3167e-11
-1.5451e-10
-2.37634e-11
-1.696e-10
-2.42373e-11
-1.85107e-10
-2.45626e-11
-2.00956e-10
-2.47082e-11
-2.17062e-10
-2.46364e-11
-2.33334e-10
-2.42915e-11
-2.49669e-10
-2.35838e-11
-2.65963e-10
-2.23549e-11
-2.82134e-10
-2.03015e-11
-2.98193e-10
-1.68231e-11
-3.14973e-10
-1.17622e-11
-3.36307e-10
-4.52306e-12
-3.82358e-10
-1.57178e-11
-5.01074e-10
-5.23322e-11
-9.89014e-10
-2.192e-12
-2.3073e-09
1.34519e-10
-2.4955e-09
2.64193e-10
-2.3623e-09
3.79293e-10
-2.14735e-09
4.75839e-10
-1.85555e-09
5.52639e-10
-1.51114e-09
6.08883e-10
-1.12057e-09
6.44237e-10
-7.11925e-10
-3.69961e-10
6.09868e-14
2.52981e-11
1.09013e-13
2.53646e-11
1.52598e-13
2.53965e-11
1.99351e-13
2.54545e-11
2.51681e-13
2.55431e-11
3.09634e-13
2.5657e-11
3.68576e-13
2.57894e-11
4.26678e-13
2.5941e-11
4.8401e-13
2.61127e-11
5.41077e-13
2.63053e-11
5.98394e-13
2.65188e-11
6.56391e-13
2.67527e-11
7.14259e-13
2.70059e-11
7.67923e-13
2.72768e-11
8.14303e-13
2.7567e-11
8.55684e-13
2.78811e-11
8.97275e-13
2.82214e-11
9.44406e-13
2.85874e-11
9.98318e-13
2.89751e-11
1.05321e-12
2.93784e-11
1.10768e-12
2.97985e-11
1.16212e-12
3.02353e-11
1.21528e-12
3.06873e-11
1.26107e-12
3.11524e-11
1.29652e-12
3.16335e-11
1.32535e-12
3.21359e-11
1.35313e-12
3.26606e-11
1.38324e-12
3.32045e-11
1.41496e-12
3.37624e-11
1.44423e-12
3.433e-11
1.46647e-12
3.49057e-11
1.47965e-12
3.54906e-11
1.48565e-12
3.60868e-11
1.48885e-12
3.66943e-11
1.49219e-12
3.73091e-11
1.49258e-12
3.79242e-11
1.48526e-12
3.85353e-11
1.46856e-12
3.91411e-11
1.4421e-12
3.97398e-11
1.40536e-12
4.03284e-11
1.35762e-12
4.09036e-11
1.298e-12
4.14608e-11
1.22572e-12
4.19948e-11
1.13995e-12
4.24995e-11
1.03782e-12
4.29682e-11
9.12456e-13
4.33943e-11
7.61479e-13
4.37754e-11
5.89013e-13
4.4109e-11
3.99772e-13
4.43861e-11
1.91739e-13
4.45927e-11
-4.16766e-14
4.47155e-11
-3.03481e-13
4.47454e-11
-5.97286e-13
4.46724e-11
-9.27429e-13
4.44835e-11
-1.2943e-12
4.4169e-11
-1.69588e-12
4.37163e-11
-2.13452e-12
4.31071e-11
-2.6152e-12
4.23225e-11
-3.14512e-12
4.13444e-11
-3.73248e-12
4.01561e-11
-4.37815e-12
3.87444e-11
-5.07758e-12
3.7092e-11
-5.8268e-12
3.51755e-11
-6.62725e-12
3.29671e-11
-7.48551e-12
3.0439e-11
-8.40687e-12
2.75682e-11
-9.39404e-12
2.43319e-11
-1.04466e-11
2.07049e-11
-1.15653e-11
1.66586e-11
-1.27503e-11
1.21661e-11
-1.4001e-11
7.20083e-12
-1.53109e-11
1.73716e-12
-1.66774e-11
-4.24918e-12
-1.80993e-11
-1.07962e-11
-1.95735e-11
-1.79239e-11
-2.10918e-11
-2.56549e-11
-2.26478e-11
-3.40071e-11
-2.42388e-11
-4.29977e-11
-2.58522e-11
-5.26381e-11
-2.74712e-11
-6.29414e-11
-2.9082e-11
-7.39164e-11
-3.06718e-11
-8.55647e-11
-3.22223e-11
-9.7877e-11
-3.37109e-11
-1.10838e-10
-3.51133e-11
-1.24425e-10
-3.6405e-11
-1.38611e-10
-3.7561e-11
-1.53355e-10
-3.85545e-11
-1.68607e-10
-3.93545e-11
-1.84308e-10
-3.99258e-11
-2.00385e-10
-4.02305e-11
-2.16758e-10
-4.0227e-11
-2.33338e-10
-3.98667e-11
-2.50029e-10
-3.9092e-11
-2.66738e-10
-3.78347e-11
-2.83391e-10
-3.6015e-11
-3.00013e-10
-3.36543e-11
-3.17334e-10
-3.0897e-11
-3.39064e-10
-2.97025e-11
-3.83553e-10
-3.03568e-11
-5.0042e-10
-5.95267e-12
-1.01338e-09
1.51855e-10
-2.46496e-09
3.09476e-10
-2.65297e-09
4.89912e-10
-2.54261e-09
6.57294e-10
-2.31461e-09
8.05742e-10
-2.00389e-09
9.26686e-10
-1.63199e-09
1.01647e-09
-1.21029e-09
1.07343e-09
-7.68834e-10
-3.99475e-10
7.81307e-14
2.52189e-11
1.49147e-13
2.52908e-11
2.18208e-13
2.53252e-11
2.88994e-13
2.53815e-11
3.62946e-13
2.54669e-11
4.39925e-13
2.55777e-11
5.17868e-13
2.57092e-11
5.95745e-13
2.58608e-11
6.73412e-13
2.60328e-11
7.51025e-13
2.62255e-11
8.28756e-13
2.64389e-11
9.06456e-13
2.66728e-11
9.83075e-13
2.69271e-11
1.05637e-12
2.72013e-11
1.12501e-12
2.74962e-11
1.19037e-12
2.78136e-11
1.25546e-12
2.81542e-11
1.32325e-12
2.85176e-11
1.3944e-12
2.89019e-11
1.46624e-12
2.93045e-11
1.5377e-12
2.97251e-11
1.60799e-12
3.01631e-11
1.6754e-12
3.0618e-11
1.73668e-12
3.10893e-11
1.79045e-12
3.1578e-11
1.83859e-12
3.20861e-11
1.88401e-12
3.26136e-11
1.9284e-12
3.31585e-11
1.97111e-12
3.37182e-11
2.00961e-12
3.42901e-11
2.04103e-12
3.48729e-11
2.06398e-12
3.54664e-11
2.07923e-12
3.60703e-11
2.08876e-12
3.66836e-11
2.09341e-12
3.73034e-11
2.09105e-12
3.79255e-11
2.07877e-12
3.85465e-11
2.05489e-12
3.9164e-11
2.01817e-12
3.97756e-11
1.96743e-12
4.03783e-11
1.90157e-12
4.09686e-11
1.81921e-12
4.15423e-11
1.71904e-12
4.20942e-11
1.59891e-12
4.26189e-11
1.45529e-12
4.31112e-11
1.28365e-12
4.35653e-11
1.082e-12
4.39764e-11
8.51465e-13
4.43389e-11
5.92832e-13
4.46443e-11
3.0338e-13
4.48817e-11
-2.16842e-14
4.50402e-11
-3.86342e-13
4.51097e-11
-7.94062e-13
4.50798e-11
-1.24913e-12
4.49384e-11
-1.75393e-12
4.46737e-11
-2.31003e-12
4.42724e-11
-2.92097e-12
4.37181e-11
-3.59204e-12
4.29937e-11
-4.32984e-12
4.20824e-11
-5.14061e-12
4.09672e-11
-6.02632e-12
3.96305e-11
-6.98639e-12
3.80525e-11
-8.02123e-12
3.62108e-11
-9.13379e-12
3.40802e-11
-1.03296e-11
3.16354e-11
-1.16139e-11
2.8853e-11
-1.2989e-11
2.57077e-11
-1.44557e-11
2.21721e-11
-1.60148e-11
1.82183e-11
-1.76665e-11
1.38184e-11
-1.94097e-11
8.94456e-12
-2.12407e-11
3.56875e-12
-2.31565e-11
-2.33302e-12
-2.51546e-11
-8.7976e-12
-2.72286e-11
-1.58497e-11
-2.93704e-11
-2.35128e-11
-3.15698e-11
-3.18076e-11
-3.38146e-11
-4.07529e-11
-3.60881e-11
-5.03646e-11
-3.83722e-11
-6.06574e-11
-4.06479e-11
-7.16409e-11
-4.28944e-11
-8.33184e-11
-4.50865e-11
-9.56852e-11
-4.71949e-11
-1.0873e-10
-4.91878e-11
-1.22433e-10
-5.10315e-11
-1.36767e-10
-5.26903e-11
-1.51696e-10
-5.41257e-11
-1.67172e-10
-5.5296e-11
-1.83138e-10
-5.61579e-11
-1.99523e-10
-5.66663e-11
-2.1625e-10
-5.67754e-11
-2.33229e-10
-5.64399e-11
-2.50365e-10
-5.56191e-11
-2.67559e-10
-5.42858e-11
-2.84725e-10
-5.24452e-11
-3.01853e-10
-5.02362e-11
-3.19543e-10
-4.78272e-11
-3.41473e-10
-4.62154e-11
-3.85164e-10
-4.32198e-11
-5.03415e-10
-2.89053e-11
-1.02763e-09
2.0421e-10
-2.69788e-09
4.62046e-10
-2.91059e-09
7.23708e-10
-2.80408e-09
9.62983e-10
-2.55371e-09
1.17303e-09
-2.21378e-09
1.34452e-09
-1.80336e-09
1.47203e-09
-1.3377e-09
1.55306e-09
-8.49806e-10
-4.41501e-10
9.73776e-14
2.51201e-11
1.90619e-13
2.51941e-11
2.83814e-13
2.5229e-11
3.78075e-13
2.52843e-11
4.73912e-13
2.53682e-11
5.71309e-13
2.54775e-11
6.69413e-13
2.56083e-11
7.67746e-13
2.57596e-11
8.66208e-13
2.59315e-11
9.6484e-13
2.6124e-11
1.06351e-12
2.63373e-11
1.16156e-12
2.65719e-11
1.25801e-12
2.68278e-11
1.35176e-12
2.71047e-11
1.44234e-12
2.74028e-11
1.53066e-12
2.77225e-11
1.61841e-12
2.80637e-11
1.70711e-12
2.84262e-11
1.79717e-12
2.88092e-11
1.88744e-12
2.92116e-11
1.97667e-12
2.96333e-11
2.06347e-12
3.00738e-11
2.14639e-12
3.05327e-11
2.22384e-12
3.10095e-11
2.29529e-12
3.15043e-11
2.3617e-12
3.20175e-11
2.42441e-12
3.25488e-11
2.48398e-12
3.3097e-11
2.53959e-12
3.36607e-11
2.58938e-12
3.42385e-11
2.63142e-12
3.48292e-11
2.66466e-12
3.54315e-11
2.68919e-12
3.60442e-11
2.7055e-12
3.66658e-11
2.71322e-12
3.72942e-11
2.71063e-12
3.79267e-11
2.69558e-12
3.85603e-11
2.66601e-12
3.91923e-11
2.62013e-12
3.98203e-11
2.55652e-12
4.04408e-11
2.47387e-12
4.10502e-11
2.37047e-12
4.16447e-11
2.24381e-12
4.22199e-11
2.09063e-12
4.27711e-11
1.90747e-12
4.32934e-11
1.69095e-12
4.3781e-11
1.43907e-12
4.42275e-11
1.15088e-12
4.46264e-11
8.24593e-13
4.49699e-11
4.56638e-13
4.52491e-11
4.25114e-14
4.54538e-11
-4.22197e-13
4.5574e-11
-9.41486e-13
4.55988e-11
-1.52008e-12
4.55168e-11
-2.16221e-12
4.53157e-11
-2.87153e-12
4.49817e-11
-3.6529e-12
4.44996e-11
-4.51219e-12
4.38532e-11
-5.45564e-12
4.30262e-11
-6.48841e-12
4.20003e-11
-7.61406e-12
4.07566e-11
-8.83579e-12
3.92748e-11
-1.01567e-11
3.75324e-11
-1.15813e-11
3.55055e-11
-1.31159e-11
3.31708e-11
-1.47651e-11
3.0503e-11
-1.65312e-11
2.74746e-11
-1.84157e-11
2.40574e-11
-2.042e-11
2.02234e-11
-2.25447e-11
1.59439e-11
-2.47889e-11
1.11895e-11
-2.715e-11
5.93052e-12
-2.96215e-11
1.38976e-13
-3.22042e-11
-6.21441e-12
-3.48884e-11
-1.3165e-11
-3.76614e-11
-2.07395e-11
-4.05118e-11
-2.8957e-11
-4.34231e-11
-3.78414e-11
-4.63756e-11
-4.74121e-11
-4.93473e-11
-5.76859e-11
-5.23132e-11
-6.86752e-11
-5.52453e-11
-8.03866e-11
-5.81113e-11
-9.28196e-11
-6.08747e-11
-1.05967e-10
-6.34954e-11
-1.19813e-10
-6.59299e-11
-1.34333e-10
-6.81314e-11
-1.49495e-10
-7.00503e-11
-1.65254e-10
-7.16353e-11
-1.81553e-10
-7.28336e-11
-1.98326e-10
-7.35917e-11
-2.15493e-10
-7.3857e-11
-2.32964e-10
-7.35814e-11
-2.50641e-10
-7.27257e-11
-2.68415e-10
-7.12691e-11
-2.86181e-10
-6.92217e-11
-3.03901e-10
-6.66713e-11
-3.22093e-10
-6.36433e-11
-3.44501e-10
-6.03454e-11
-3.88462e-10
-5.53268e-11
-5.08433e-10
-4.42908e-11
-1.03857e-09
2.65933e-10
-3.00784e-09
6.22966e-10
-3.26734e-09
9.76044e-10
-3.15691e-09
1.29793e-09
-2.87537e-09
1.57856e-09
-2.49422e-09
1.80751e-09
-2.03214e-09
1.97758e-09
-1.50765e-09
2.08566e-09
-9.57801e-10
-4.97495e-10
1.17727e-13
2.50004e-11
2.33192e-13
2.50744e-11
3.495e-13
2.51091e-11
4.66351e-13
2.51639e-11
5.83963e-13
2.52471e-11
7.02343e-13
2.53556e-11
8.212e-13
2.54859e-11
9.40419e-13
2.56369e-11
1.06007e-12
2.58083e-11
1.17995e-12
2.60006e-11
1.29938e-12
2.62144e-11
1.4177e-12
2.64501e-11
1.53442e-12
2.67076e-11
1.64908e-12
2.69866e-11
1.7616e-12
2.72869e-11
1.87253e-12
2.76082e-11
1.98276e-12
2.79501e-11
2.09289e-12
2.83128e-11
2.20285e-12
2.8696e-11
2.31173e-12
2.90996e-11
2.41844e-12
2.95235e-11
2.5219e-12
2.99673e-11
2.6212e-12
3.04305e-11
2.7156e-12
3.09123e-11
2.80491e-12
3.14123e-11
2.88951e-12
3.19303e-11
2.96967e-12
3.24661e-11
3.04501e-12
3.30192e-11
3.11458e-12
3.35888e-11
3.17706e-12
3.41739e-11
3.23098e-12
3.47732e-11
3.27541e-12
3.53851e-11
3.30986e-12
3.60079e-11
3.33384e-12
3.664e-11
3.34637e-12
3.728e-11
3.3457e-12
3.79257e-11
3.32954e-12
3.85749e-11
3.29576e-12
3.92246e-11
3.24259e-12
3.9872e-11
3.16833e-12
4.05136e-11
3.07097e-12
4.11463e-11
2.94795e-12
4.17664e-11
2.79608e-12
4.23705e-11
2.61186e-12
4.29542e-11
2.39201e-12
4.35122e-11
2.13354e-12
4.40384e-11
1.83388e-12
4.45263e-11
1.49037e-12
4.4969e-11
1.09955e-12
4.53599e-11
6.57041e-13
4.56909e-11
1.58073e-13
4.59522e-11
-4.02151e-13
4.61337e-11
-1.02892e-12
4.62252e-11
-1.72747e-12
4.6215e-11
-2.50293e-12
4.60911e-11
-3.36116e-12
4.58399e-11
-4.30806e-12
4.54466e-11
-5.3499e-12
4.48953e-11
-6.4927e-12
4.41693e-11
-7.74256e-12
4.32507e-11
-9.10523e-12
4.21199e-11
-1.05858e-11
4.07561e-11
-1.21899e-11
3.91372e-11
-1.39239e-11
3.72404e-11
-1.57943e-11
3.50421e-11
-1.78054e-11
3.2515e-11
-1.99601e-11
2.96302e-11
-2.22611e-11
2.63593e-11
-2.47105e-11
2.26737e-11
-2.73091e-11
1.85434e-11
-3.00567e-11
1.39379e-11
-3.29518e-11
8.82633e-12
-3.59888e-11
3.1767e-12
-3.91633e-11
-3.03933e-12
-4.24647e-11
-9.86318e-12
-4.58836e-11
-1.73203e-11
-4.94015e-11
-2.54388e-11
-5.29987e-11
-3.42441e-11
-5.66533e-11
-4.37576e-11
-6.03385e-11
-5.40008e-11
-6.4024e-11
-6.49901e-11
-6.7675e-11
-7.6736e-11
-7.12522e-11
-8.92428e-11
-7.47113e-11
-1.02508e-10
-7.8003e-11
-1.16522e-10
-8.10737e-11
-1.31264e-10
-8.38657e-11
-1.46704e-10
-8.63191e-11
-1.62801e-10
-8.83717e-11
-1.79501e-10
-8.99596e-11
-1.96738e-10
-9.10184e-11
-2.14434e-10
-9.14861e-11
-2.32497e-10
-9.13056e-11
-2.50822e-10
-9.04291e-11
-2.69292e-10
-8.88256e-11
-2.87785e-10
-8.6486e-11
-3.0624e-10
-8.34356e-11
-3.25143e-10
-7.96016e-11
-3.48335e-10
-7.48384e-11
-3.93225e-10
-6.77208e-11
-5.1555e-10
-5.37814e-11
-1.05238e-09
3.43461e-10
-3.40475e-09
8.04803e-10
-3.72834e-09
1.25976e-09
-3.61155e-09
1.67453e-09
-3.28986e-09
2.03519e-09
-2.85464e-09
2.32926e-09
-2.326e-09
2.54757e-09
-1.72582e-09
2.68626e-09
-1.09639e-09
-5.6929e-10
1.3929e-13
2.48588e-11
2.76763e-13
2.4932e-11
4.15288e-13
2.49664e-11
5.54232e-13
2.50209e-11
6.93571e-13
2.51036e-11
8.33308e-13
2.52117e-11
9.73472e-13
2.53416e-11
1.11415e-12
2.54921e-11
1.25509e-12
2.56632e-11
1.39569e-12
2.58559e-11
1.53545e-12
2.60705e-11
1.67404e-12
2.63074e-11
1.81139e-12
2.65662e-11
1.94745e-12
2.68465e-11
2.08212e-12
2.71482e-11
2.21555e-12
2.74708e-11
2.34801e-12
2.78138e-11
2.47945e-12
2.81775e-11
2.60939e-12
2.85622e-11
2.73699e-12
2.89683e-11
2.86153e-12
2.93954e-11
2.98248e-12
2.98429e-11
3.09943e-12
3.03101e-11
3.21202e-12
3.07964e-11
3.32005e-12
3.1301e-11
3.42343e-12
3.18238e-11
3.52153e-12
3.2365e-11
3.61332e-12
3.29246e-11
3.69779e-12
3.35016e-11
3.77397e-12
3.40951e-11
3.8409e-12
3.47037e-11
3.89755e-12
3.5326e-11
3.94294e-12
3.59602e-11
3.9758e-12
3.6605e-11
3.99451e-12
3.72592e-11
3.99708e-12
3.79212e-11
3.98139e-12
3.85887e-11
3.94541e-12
3.92588e-11
3.88717e-12
3.99285e-11
3.80437e-12
4.05948e-11
3.69425e-12
4.12548e-11
3.55358e-12
4.19056e-11
3.37888e-12
4.25438e-11
3.16681e-12
4.31649e-11
2.91418e-12
4.37636e-11
2.61776e-12
4.43337e-11
2.27393e-12
4.4869e-11
1.87852e-12
4.53634e-11
1.42697e-12
4.58106e-11
9.14321e-13
4.62027e-11
3.3525e-13
4.65306e-11
-3.15884e-13
4.67843e-11
-1.04445e-12
4.69533e-11
-1.85709e-12
4.70274e-11
-2.76056e-12
4.69944e-11
-3.76155e-12
4.68409e-11
-4.86704e-12
4.65522e-11
-6.08429e-12
4.61128e-11
-7.42031e-12
4.55058e-11
-8.88233e-12
4.47133e-11
-1.04775e-11
4.37157e-11
-1.22127e-11
4.24921e-11
-1.40958e-11
4.10212e-11
-1.61348e-11
3.92804e-11
-1.8336e-11
3.72443e-11
-2.07041e-11
3.48842e-11
-2.32435e-11
3.21708e-11
-2.59583e-11
2.90752e-11
-2.88514e-11
2.55678e-11
-3.19249e-11
2.1618e-11
-3.518e-11
1.7194e-11
-3.86146e-11
1.22618e-11
-4.22236e-11
6.78658e-12
-4.59966e-11
7.34292e-13
-4.99311e-11
-5.92813e-12
-5.40083e-11
-1.32426e-11
-5.82118e-11
-2.1235e-11
-6.25189e-11
-2.99369e-11
-6.69028e-11
-3.93737e-11
-7.13329e-11
-4.95709e-11
-7.57734e-11
-6.05499e-11
-8.01835e-11
-7.23263e-11
-8.45165e-11
-8.49103e-11
-8.87196e-11
-9.83058e-11
-9.27342e-11
-1.12508e-10
-9.64964e-11
-1.27502e-10
-9.99385e-11
-1.43263e-10
-1.02989e-10
-1.59751e-10
-1.05573e-10
-1.76918e-10
-1.07614e-10
-1.94698e-10
-1.09034e-10
-2.13015e-10
-1.09759e-10
-2.31773e-10
-1.09717e-10
-2.50864e-10
-1.08848e-10
-2.70162e-10
-1.07102e-10
-2.89531e-10
-1.04445e-10
-3.08897e-10
-1.00856e-10
-3.28733e-10
-9.62001e-11
-3.5299e-10
-9.0141e-11
-3.99284e-10
-8.10127e-11
-5.24677e-10
-6.27515e-11
-1.07049e-09
4.34323e-10
-3.90142e-09
1.01341e-09
-4.30702e-09
1.58438e-09
-4.18215e-09
2.10515e-09
-3.8103e-09
2.55757e-09
-3.30677e-09
2.92632e-09
-2.69452e-09
3.19999e-09
-1.99931e-09
3.3738e-09
-1.27008e-09
-6.59209e-10
1.61237e-13
2.46949e-11
3.20412e-13
2.47671e-11
4.80966e-13
2.4801e-11
6.41939e-13
2.48551e-11
8.0315e-13
2.49376e-11
9.64656e-13
2.50454e-11
1.12653e-12
2.5175e-11
1.28854e-12
2.53253e-11
1.45029e-12
2.54967e-11
1.6114e-12
2.569e-11
1.77155e-12
2.59057e-11
1.9307e-12
2.61435e-11
2.08916e-12
2.6403e-11
2.24699e-12
2.6684e-11
2.40391e-12
2.69867e-11
2.55964e-12
2.73105e-11
2.71398e-12
2.76549e-11
2.86644e-12
2.80206e-11
3.01633e-12
2.8408e-11
3.16305e-12
2.88173e-11
3.30633e-12
2.92479e-11
3.44616e-12
2.9699e-11
3.58234e-12
3.017e-11
3.71444e-12
3.06605e-11
3.84199e-12
3.11698e-11
3.96442e-12
3.16978e-11
4.0808e-12
3.22452e-11
4.18988e-12
3.28122e-11
4.2905e-12
3.33979e-11
4.38174e-12
3.40008e-11
4.46275e-12
3.46199e-11
4.53255e-12
3.52535e-11
4.5897e-12
3.59005e-11
4.63234e-12
3.65599e-11
4.65846e-12
3.72307e-11
4.66601e-12
3.79114e-11
4.65297e-12
3.85996e-11
4.6172e-12
3.92925e-11
4.55625e-12
3.99875e-11
4.46717e-12
4.0682e-11
4.34657e-12
4.13736e-11
4.19096e-12
4.20596e-11
3.99694e-12
4.27362e-11
3.76128e-12
4.33991e-11
3.48054e-12
4.40429e-11
3.15069e-12
4.46622e-11
2.76692e-12
4.52515e-11
2.32388e-12
4.58053e-11
1.8162e-12
4.63172e-11
1.23851e-12
4.67795e-11
5.84999e-13
4.71833e-11
-1.50677e-13
4.75194e-11
-9.75072e-13
4.77773e-11
-1.89585e-12
4.79479e-11
-2.92031e-12
4.80187e-11
-4.05696e-12
4.79775e-11
-5.31383e-12
4.78093e-11
-6.69912e-12
4.74984e-11
-8.22111e-12
4.70283e-11
-9.88827e-12
4.63811e-11
-1.17091e-11
4.55373e-11
-1.3693e-11
4.44769e-11
-1.58495e-11
4.31787e-11
-1.81869e-11
4.1619e-11
-2.0712e-11
3.97706e-11
-2.34312e-11
3.76046e-11
-2.63505e-11
3.50914e-11
-2.94758e-11
3.22017e-11
-3.2812e-11
2.89053e-11
-3.63627e-11
2.517e-11
-4.01286e-11
2.0961e-11
-4.41073e-11
1.62415e-11
-4.82938e-11
1.0974e-11
-5.26798e-11
5.12116e-12
-5.72554e-11
-1.35195e-12
-6.20099e-11
-8.48768e-12
-6.69212e-11
-1.63234e-11
-7.19637e-11
-2.48943e-11
-7.71082e-11
-3.42292e-11
-8.23193e-11
-4.436e-11
-8.75566e-11
-5.53129e-11
-9.27727e-11
-6.71106e-11
-9.79133e-11
-7.97703e-11
-1.02917e-10
-9.33027e-11
-1.07716e-10
-1.07709e-10
-1.12237e-10
-1.22982e-10
-1.16401e-10
-1.39099e-10
-1.20124e-10
-1.56029e-10
-1.23317e-10
-1.73726e-10
-1.25888e-10
-1.92128e-10
-1.27744e-10
-2.1116e-10
-1.28793e-10
-2.30724e-10
-1.2895e-10
-2.50708e-10
-1.28134e-10
-2.70978e-10
-1.26276e-10
-2.91389e-10
-1.23317e-10
-3.11855e-10
-1.192e-10
-3.3285e-10
-1.13745e-10
-3.58445e-10
-1.06481e-10
-4.06546e-10
-9.5483e-11
-5.35674e-10
-7.30842e-11
-1.0927e-09
5.39683e-10
-4.51373e-09
1.2552e-09
-5.02205e-09
1.96042e-09
-4.88694e-09
2.60384e-09
-4.45333e-09
3.16257e-09
-3.86516e-09
3.6179e-09
-3.14957e-09
3.95577e-09
-2.33698e-09
4.1703e-09
-1.48448e-09
-7.70147e-10
1.82911e-13
2.45088e-11
3.63938e-13
2.45797e-11
5.46656e-13
2.46127e-11
7.29728e-13
2.46667e-11
9.12942e-13
2.47491e-11
1.09629e-12
2.48567e-11
1.27962e-12
2.49862e-11
1.46269e-12
2.51368e-11
1.64529e-12
2.53088e-11
1.82725e-12
2.55027e-11
2.00848e-12
2.57191e-11
2.18911e-12
2.59576e-11
2.36921e-12
2.62176e-11
2.54864e-12
2.64993e-11
2.72729e-12
2.68028e-11
2.90483e-12
2.71278e-11
3.08062e-12
2.7474e-11
3.25393e-12
2.78422e-11
3.42413e-12
2.82329e-11
3.59105e-12
2.86456e-11
3.75495e-12
2.90793e-11
3.91563e-12
2.95337e-11
4.07231e-12
3.00088e-11
4.22461e-12
3.05039e-11
4.3721e-12
3.10181e-11
4.51383e-12
3.15521e-11
4.6487e-12
3.21065e-11
4.77555e-12
3.26817e-11
4.89324e-12
3.32767e-11
5.00072e-12
3.389e-11
5.09711e-12
3.45203e-11
5.18118e-12
3.51664e-11
5.25107e-12
3.58276e-11
5.30462e-12
3.65035e-11
5.33974e-12
3.7193e-11
5.3544e-12
3.78942e-11
5.34648e-12
3.86051e-11
5.31347e-12
3.93233e-11
5.2523e-12
4.00465e-11
5.15947e-12
4.07728e-11
5.03136e-12
4.14997e-11
4.86453e-12
4.22245e-11
4.65571e-12
4.29432e-11
4.40142e-12
4.36516e-11
4.09749e-12
4.43452e-11
3.7388e-12
4.50194e-11
3.31952e-12
4.56694e-11
2.83367e-12
4.62899e-11
2.27554e-12
4.68742e-11
1.63924e-12
4.74148e-11
9.1823e-13
4.79035e-11
1.05452e-13
4.83315e-11
-8.07337e-13
4.86895e-11
-1.82813e-12
4.89683e-11
-2.96672e-12
4.91571e-11
-4.2317e-12
4.92425e-11
-5.63182e-12
4.92096e-11
-7.17671e-12
4.90437e-11
-8.87606e-12
4.87282e-11
-1.07397e-11
4.82454e-11
-1.27784e-11
4.75769e-11
-1.50032e-11
4.67028e-11
-1.74247e-11
4.56013e-11
-2.00516e-11
4.42471e-11
-2.28923e-11
4.26127e-11
-2.59554e-11
4.06691e-11
-2.92496e-11
3.8387e-11
-3.27829e-11
3.57364e-11
-3.65615e-11
3.26853e-11
-4.05893e-11
2.91992e-11
-4.48674e-11
2.52403e-11
-4.9394e-11
2.07692e-11
-5.41654e-11
1.57465e-11
-5.91748e-11
1.01315e-11
-6.44086e-11
3.88256e-12
-6.98579e-11
-3.03785e-12
-7.55008e-11
-1.06801e-11
-8.1308e-11
-1.90869e-11
-8.72482e-11
-2.8289e-11
-9.32821e-11
-3.83262e-11
-9.93635e-11
-4.92319e-11
-1.05439e-10
-6.10355e-11
-1.11447e-10
-7.37629e-11
-1.17318e-10
-8.74323e-11
-1.22976e-10
-1.02053e-10
-1.28336e-10
-1.17622e-10
-1.33308e-10
-1.34129e-10
-1.37792e-10
-1.51546e-10
-1.41684e-10
-1.69834e-10
-1.44876e-10
-1.88937e-10
-1.47256e-10
-2.0878e-10
-1.48716e-10
-2.29265e-10
-1.4915e-10
-2.50275e-10
-1.48455e-10
-2.71672e-10
-1.46542e-10
-2.93303e-10
-1.43325e-10
-3.15072e-10
-1.38717e-10
-3.37458e-10
-1.32499e-10
-3.64662e-10
-1.24095e-10
-4.14951e-10
-1.11318e-10
-5.4845e-10
-8.5028e-11
-1.11877e-09
6.62961e-10
-5.26119e-09
1.53796e-09
-5.8965e-09
2.40007e-09
-5.74856e-09
3.18673e-09
-5.23955e-09
3.86972e-09
-4.54777e-09
4.42625e-09
-3.7058e-09
4.83917e-09
-2.74967e-09
5.10133e-09
-1.74649e-09
-9.05657e-10
2.05645e-13
2.42996e-11
4.08855e-13
2.43694e-11
6.13373e-13
2.44021e-11
8.18132e-13
2.44559e-11
1.02297e-12
2.45382e-11
1.22774e-12
2.46459e-11
1.43228e-12
2.47757e-11
1.63645e-12
2.49267e-11
1.84018e-12
2.50991e-11
2.04347e-12
2.52934e-11
2.24636e-12
2.55102e-11
2.44881e-12
2.57492e-11
2.65063e-12
2.60099e-11
2.85168e-12
2.62924e-11
3.05192e-12
2.65968e-11
3.25096e-12
2.6923e-11
3.44804e-12
2.72713e-11
3.64243e-12
2.76423e-11
3.83377e-12
2.8036e-11
4.02246e-12
2.84515e-11
4.20838e-12
2.88881e-11
4.39065e-12
2.93463e-11
4.5687e-12
2.98258e-11
4.74225e-12
3.03255e-11
4.91049e-12
3.08452e-11
5.07209e-12
3.1386e-11
5.22587e-12
3.19484e-11
5.37106e-12
3.25323e-11
5.50671e-12
3.3137e-11
5.63162e-12
3.37613e-11
5.74466e-12
3.44036e-11
5.84419e-12
3.50634e-11
5.92806e-12
3.57405e-11
5.99409e-12
3.64344e-11
6.04025e-12
3.71438e-11
6.06446e-12
3.78672e-11
6.06427e-12
3.86026e-11
6.03662e-12
3.93483e-11
5.97794e-12
4.01027e-11
5.88448e-12
4.08639e-11
5.75272e-12
4.16293e-11
5.57933e-12
4.23958e-11
5.36086e-12
4.31597e-11
5.09312e-12
4.39175e-11
4.77089e-12
4.46656e-11
4.38811e-12
4.54005e-11
3.93842e-12
4.61176e-11
3.41571e-12
4.68112e-11
2.81398e-12
4.74747e-11
2.12676e-12
4.8101e-11
1.34664e-12
4.86827e-11
4.64938e-13
4.92124e-11
-5.28235e-13
4.96822e-11
-1.6424e-12
5.00821e-11
-2.88694e-12
5.04015e-11
-4.27075e-12
5.06264e-11
-5.80458e-12
5.07436e-11
-7.49902e-12
5.07386e-11
-9.36542e-12
5.05952e-11
-1.14156e-11
5.02965e-11
-1.36625e-11
4.98247e-11
-1.61181e-11
4.91596e-11
-1.87935e-11
4.82779e-11
-2.16993e-11
4.71543e-11
-2.48465e-11
4.57613e-11
-2.82464e-11
4.40705e-11
-3.191e-11
4.20521e-11
-3.58468e-11
3.96748e-11
-4.00643e-11
3.69042e-11
-4.45668e-11
3.37032e-11
-4.9357e-11
3.00319e-11
-5.44354e-11
2.58489e-11
-5.97996e-11
2.11118e-11
-6.54433e-11
1.57761e-11
-7.13561e-11
9.79611e-12
-7.75187e-11
3.12538e-12
-8.39153e-11
-4.28302e-12
-9.05208e-11
-1.24812e-11
-9.72974e-11
-2.15124e-11
-1.04199e-10
-3.14245e-11
-1.11178e-10
-4.22537e-11
-1.18173e-10
-5.40404e-11
-1.25118e-10
-6.68191e-11
-1.31934e-10
-8.06169e-11
-1.38536e-10
-9.54517e-11
-1.44828e-10
-1.11331e-10
-1.50705e-10
-1.28252e-10
-1.56054e-10
-1.46198e-10
-1.60751e-10
-1.65137e-10
-1.64672e-10
-1.85018e-10
-1.67685e-10
-2.05767e-10
-1.69662e-10
-2.27289e-10
-1.70472e-10
-2.49465e-10
-1.69991e-10
-2.72154e-10
-1.68101e-10
-2.95193e-10
-1.64694e-10
-3.18479e-10
-1.59653e-10
-3.42499e-10
-1.52722e-10
-3.71592e-10
-1.43227e-10
-4.24445e-10
-1.28707e-10
-5.62969e-10
-9.85756e-11
-1.14865e-09
8.08469e-10
-6.16764e-09
1.87094e-09
-6.95836e-09
2.91756e-09
-6.79464e-09
3.87265e-09
-6.19415e-09
4.70179e-09
-5.37649e-09
5.37738e-09
-4.38104e-09
5.8786e-09
-3.25063e-09
6.19678e-09
-2.06452e-09
-1.07007e-09
2.28728e-13
2.4067e-11
4.54064e-13
2.41362e-11
6.80247e-13
2.41692e-11
9.06412e-13
2.42232e-11
1.13255e-12
2.43055e-11
1.35862e-12
2.44133e-11
1.58447e-12
2.45433e-11
1.81004e-12
2.46946e-11
2.03529e-12
2.48673e-11
2.26026e-12
2.50619e-11
2.48503e-12
2.52789e-11
2.70941e-12
2.55183e-11
2.93305e-12
2.57798e-11
3.15582e-12
2.60632e-11
3.37766e-12
2.63686e-11
3.5982e-12
2.66961e-11
3.81678e-12
2.70465e-11
4.03289e-12
2.742e-11
4.24667e-12
2.78162e-11
4.45808e-12
2.82342e-11
4.6664e-12
2.8674e-11
4.87094e-12
2.91361e-11
5.07138e-12
2.96199e-11
5.26709e-12
3.01245e-11
5.45669e-12
3.06505e-11
5.63879e-12
3.1199e-11
5.8124e-12
3.17701e-11
5.9769e-12
3.23633e-11
6.13151e-12
3.29781e-11
6.27512e-12
3.36135e-11
6.40612e-12
3.42686e-11
6.52244e-12
3.49433e-11
6.62191e-12
3.56374e-11
6.70248e-12
3.63503e-11
6.76211e-12
3.70809e-11
6.79848e-12
3.78277e-11
6.80866e-12
3.85894e-11
6.78914e-12
3.9365e-11
6.73611e-12
4.01531e-11
6.64592e-12
4.09515e-11
6.51519e-12
4.17576e-11
6.34047e-12
4.25682e-11
6.11763e-12
4.33804e-11
5.84148e-12
4.41916e-11
5.50586e-12
4.49993e-11
5.10427e-12
4.58003e-11
4.63037e-12
4.65898e-11
4.07803e-12
4.73621e-11
3.44068e-12
4.81107e-11
2.71072e-12
4.88298e-11
1.87903e-12
4.95134e-11
9.35325e-13
5.01553e-11
-1.30864e-13
5.07478e-11
-1.32909e-12
5.12799e-11
-2.66831e-12
5.17406e-11
-4.15976e-12
5.21179e-11
-5.81562e-12
5.23998e-11
-7.64776e-12
5.25712e-11
-9.66959e-12
5.26177e-11
-1.18953e-11
5.2523e-11
-1.43385e-11
5.2269e-11
-1.70121e-11
5.18344e-11
-1.99289e-11
5.11961e-11
-2.31023e-11
5.03291e-11
-2.65459e-11
4.92065e-11
-3.02738e-11
4.78001e-11
-3.42991e-11
4.6079e-11
-3.86326e-11
4.401e-11
-4.32831e-11
4.15563e-11
-4.82569e-11
3.86786e-11
-5.3559e-11
3.53355e-11
-5.91922e-11
3.14834e-11
-6.51556e-11
2.70764e-11
-7.14443e-11
2.20659e-11
-7.80486e-11
1.64013e-11
-8.49529e-11
1.00304e-11
-9.2134e-11
2.89859e-12
-9.95696e-11
-5.04536e-12
-1.0722e-10
-1.38617e-11
-1.15042e-10
-2.36033e-11
-1.22977e-10
-3.43188e-11
-1.30961e-10
-4.60569e-11
-1.3892e-10
-5.88607e-11
-1.46769e-10
-7.27685e-11
-1.54412e-10
-8.78093e-11
-1.61741e-10
-1.04003e-10
-1.68636e-10
-1.21358e-10
-1.74967e-10
-1.39868e-10