/*--------------------------------*- C++ -*----------------------------------*\
| =========                 |                                                 |
| \\      /  F ield         | OpenFOAM: The Open Source CFD Toolbox           |
|  \\    /   O peration     | Version:  v2106                                 |
|   \\  /    A nd           | Website:  www.openfoam.com                      |
|    \\/     M anipulation  |                                                 |
\*---------------------------------------------------------------------------*/
FoamFile
{
    version     2.0;
    format      ascii;
    arch        "LSB;label=32;scalar=64";
    class       volVectorField;
    location    "0.1";
    object      U;
}
// * * * * * * * * * * * * * * * * * * * * * * * * * * * * * * * * * * * * * //

dimensions      [0 1 -1 0 0 0 0];

internalField   nonuniform List<vector> 
29678
(
(2.1275e-07 2.57807e-28 1.61722e-09)
(2.11586e-07 7.75744e-27 4.90272e-10)
(2.12172e-07 1.11546e-25 6.01698e-10)
(2.12827e-07 2.16941e-24 6.00184e-10)
(2.1379e-07 -9.94668e-25 7.55394e-10)
(2.14963e-07 -1.15613e-24 1.0107e-09)
(2.16077e-07 -1.16602e-24 1.31999e-09)
(2.17293e-07 1.0327e-24 1.60667e-09)
(2.18693e-07 4.64293e-26 1.87336e-09)
(2.20288e-07 -1.07578e-24 2.13125e-09)
(2.22079e-07 7.84481e-26 2.38992e-09)
(2.24061e-07 1.13398e-24 2.66004e-09)
(2.262e-07 7.37887e-26 2.95253e-09)
(2.28325e-07 -1.07953e-24 3.23302e-09)
(2.30477e-07 6.42609e-26 3.42282e-09)
(2.32923e-07 1.18946e-24 3.51043e-09)
(2.35779e-07 2.38594e-26 3.56653e-09)
(2.39051e-07 1.1604e-25 3.68127e-09)
(2.42569e-07 1.2227e-24 3.9259e-09)
(2.4593e-07 4.14745e-27 4.23496e-09)
(2.49414e-07 1.22348e-25 4.5248e-09)
(2.53071e-07 4.98661e-26 4.81582e-09)
(2.56854e-07 -1.28479e-25 5.13067e-09)
(2.60495e-07 -2.69122e-24 5.41301e-09)
(2.64151e-07 1.08106e-24 5.56417e-09)
(2.68151e-07 -2.52623e-24 5.59842e-09)
(2.72554e-07 4.22359e-24 5.61502e-09)
(2.77242e-07 1.30325e-24 5.69309e-09)
(2.82017e-07 -2.69869e-25 5.85251e-09)
(2.8672e-07 2.38958e-26 6.04855e-09)
(2.91324e-07 -7.07715e-26 6.20745e-09)
(2.95937e-07 -1.65161e-25 6.2758e-09)
(3.00726e-07 -3.36004e-24 6.25913e-09)
(3.0579e-07 -1.49916e-24 6.22238e-09)
(3.11055e-07 1.32844e-24 6.24927e-09)
(3.16195e-07 -1.44108e-24 6.34279e-09)
(3.21115e-07 1.53211e-24 6.42125e-09)
(3.25969e-07 -1.49592e-24 6.44117e-09)
(3.3077e-07 -1.87783e-24 6.40946e-09)
(3.35489e-07 1.75423e-24 6.33398e-09)
(3.40092e-07 -1.78817e-24 6.2175e-09)
(3.44533e-07 1.73746e-24 6.06016e-09)
(3.48775e-07 -1.82882e-24 5.86204e-09)
(3.52767e-07 1.62985e-24 5.62767e-09)
(3.56416e-07 -1.78874e-24 5.35949e-09)
(3.5945e-07 -1.84283e-24 4.99174e-09)
(3.62045e-07 1.66804e-24 4.44352e-09)
(3.64443e-07 -1.90781e-24 3.75518e-09)
(3.66603e-07 1.85889e-24 3.04749e-09)
(3.68117e-07 -1.83533e-24 2.36886e-09)
(3.68685e-07 2.1421e-24 1.63881e-09)
(3.68424e-07 2.24634e-24 7.92295e-10)
(3.67254e-07 1.90558e-24 -1.64871e-10)
(3.64968e-07 -1.86079e-24 -1.27882e-09)
(3.61665e-07 -2.00282e-26 -2.58361e-09)
(3.57371e-07 1.64935e-24 -4.00343e-09)
(3.51729e-07 -2.00952e-24 -5.49595e-09)
(3.44488e-07 1.97658e-24 -7.09989e-09)
(3.35445e-07 -1.80026e-24 -8.8723e-09)
(3.24377e-07 1.31686e-24 -1.09134e-08)
(3.11477e-07 -1.73845e-24 -1.3271e-08)
(2.96789e-07 1.73157e-24 -1.58703e-08)
(2.80087e-07 -1.62384e-24 -1.86069e-08)
(2.60937e-07 -1.65365e-24 -2.14368e-08)
(2.38888e-07 1.32139e-24 -2.44175e-08)
(2.13852e-07 1.36365e-24 -2.76276e-08)
(1.85716e-07 1.44492e-25 -3.10951e-08)
(1.54388e-07 -8.8408e-25 -3.48035e-08)
(1.19565e-07 -9.53039e-27 -3.87266e-08)
(8.10606e-08 -7.60484e-25 -4.28352e-08)
(3.87938e-08 4.64833e-25 -4.70445e-08)
(-6.55954e-09 3.16971e-26 -5.11256e-08)
(-5.6065e-08 -1.89034e-25 -5.35429e-08)
(-1.10753e-07 -6.0645e-26 -5.5631e-08)
(-1.70596e-07 -2.81653e-25 -5.71837e-08)
(-2.35532e-07 -9.4101e-25 -5.91451e-08)
(-3.05925e-07 7.23273e-25 -6.0856e-08)
(-3.82361e-07 -1.51585e-24 -6.33348e-08)
(-4.63877e-07 2.08753e-24 -6.6798e-08)
(-5.50175e-07 -5.03378e-24 -7.06369e-08)
(-6.41634e-07 1.81061e-24 -7.46537e-08)
(-7.3852e-07 -2.59712e-24 -7.87554e-08)
(-8.4057e-07 3.70654e-24 -8.28852e-08)
(-9.47574e-07 -4.8386e-24 -8.69154e-08)
(-1.05935e-06 -5.13213e-24 -9.07248e-08)
(-1.17569e-06 5.48189e-24 -9.42211e-08)
(-1.29631e-06 -6.28945e-24 -9.73478e-08)
(-1.42077e-06 5.3711e-24 -1.0006e-07)
(-1.54843e-06 -7.0527e-24 -1.02287e-07)
(-1.67856e-06 7.28972e-24 -1.03901e-07)
(-1.81038e-06 -1.75273e-23 -1.04718e-07)
(-1.943e-06 -8.33842e-25 -1.04514e-07)
(-2.0752e-06 9.4456e-24 -1.02947e-07)
(-2.2055e-06 -2.07999e-23 -9.94021e-08)
(-2.3319e-06 6.63562e-24 -9.30401e-08)
(-2.45245e-06 -2.63676e-23 -8.01884e-08)
(-2.56725e-06 1.14232e-23 -6.56139e-08)
(-2.72314e-06 -1.46609e-23 -1.615e-08)
(-3.06348e-06 1.3155e-23 2.63054e-09)
(-4.35346e-06 -1.9401e-23 1.18537e-07)
(-1.06838e-05 -2.13592e-23 -1.06412e-07)
(-1.896e-05 9.52649e-23 -5.97539e-06)
(-1.75988e-05 -1.1028e-22 -9.92091e-07)
(-1.75962e-05 -1.05159e-23 -9.24057e-07)
(-1.59204e-05 -1.56351e-22 7.58358e-07)
(-1.40272e-05 6.13592e-23 1.25038e-06)
(-1.14863e-05 -4.4986e-23 1.89916e-06)
(-8.56099e-06 6.56823e-23 2.25466e-06)
(-5.45667e-06 -3.70861e-23 2.49672e-06)
(-2.84993e-06 -3.4304e-24 2.64714e-06)
(2.11495e-07 -1.07802e-28 2.31185e-10)
(2.11956e-07 -3.29312e-27 5.5398e-10)
(2.12133e-07 -3.96259e-26 6.94674e-10)
(2.12665e-07 -1.02277e-24 8.51307e-10)
(2.13476e-07 -5.57311e-26 1.08835e-09)
(2.145e-07 -1.26255e-26 1.41263e-09)
(2.15614e-07 -3.06958e-26 1.78108e-09)
(2.16863e-07 -9.37487e-25 2.13046e-09)
(2.18283e-07 9.35132e-25 2.46107e-09)
(2.19884e-07 7.71737e-26 2.78333e-09)
(2.21667e-07 9.99421e-25 3.1062e-09)
(2.23627e-07 -9.49509e-25 3.43922e-09)
(2.25739e-07 9.33743e-25 3.79271e-09)
(2.27944e-07 8.26347e-26 4.13547e-09)
(2.30265e-07 1.07136e-24 4.39634e-09)
(2.32815e-07 -9.97843e-25 4.5637e-09)
(2.35654e-07 1.13208e-24 4.69932e-09)
(2.38781e-07 1.05904e-24 4.88429e-09)
(2.42105e-07 -2.25934e-24 5.18227e-09)
(2.45475e-07 1.13392e-24 5.53624e-09)
(2.48969e-07 1.19447e-24 5.87303e-09)
(2.5261e-07 1.20284e-24 6.20954e-09)
(2.56367e-07 2.97262e-26 6.56638e-09)
(2.60149e-07 1.10514e-24 6.89257e-09)
(2.64022e-07 1.79629e-25 7.09799e-09)
(2.68125e-07 2.99414e-24 7.193e-09)
(2.7249e-07 -9.53386e-25 7.26402e-09)
(2.7706e-07 -2.58678e-24 7.38224e-09)
(2.81738e-07 1.46875e-24 7.56653e-09)
(2.86442e-07 1.69916e-24 7.77791e-09)
(2.91151e-07 1.44979e-24 7.9494e-09)
(2.9591e-07 1.02955e-25 8.0314e-09)
(3.00789e-07 2.87191e-24 8.02665e-09)
(3.05825e-07 9.44306e-26 7.99144e-09)
(3.10964e-07 -1.33752e-24 8.00023e-09)
(3.16063e-07 -5.28202e-26 8.05718e-09)
(3.21063e-07 2.03925e-25 8.08831e-09)
(3.26e-07 -4.07622e-26 8.05091e-09)
(3.30876e-07 5.44899e-26 7.94973e-09)
(3.35663e-07 1.65897e-25 7.79057e-09)
(3.40331e-07 -6.52781e-26 7.57402e-09)
(3.44838e-07 -1.75052e-24 7.29756e-09)
(3.49145e-07 -5.11243e-26 6.95846e-09)
(3.532e-07 5.50186e-25 6.55894e-09)
(3.56923e-07 1.63881e-25 6.10024e-09)
(3.60198e-07 3.64338e-24 5.51976e-09)
(3.63066e-07 1.86267e-25 4.73898e-09)
(3.65598e-07 -5.83807e-26 3.7885e-09)
(3.67731e-07 -1.84877e-24 2.77311e-09)
(3.69251e-07 -6.54272e-26 1.73653e-09)
(3.69983e-07 -4.69309e-27 6.05016e-10)
(3.69906e-07 -1.96189e-24 -6.85306e-10)
(3.68932e-07 -1.70451e-24 -2.13569e-09)
(3.66935e-07 1.97681e-24 -3.79058e-09)
(3.63891e-07 1.35347e-26 -5.6847e-09)
(3.59731e-07 -1.4436e-24 -7.75714e-09)
(3.54241e-07 1.66301e-24 -9.97328e-09)
(3.47228e-07 1.1716e-25 -1.2371e-08)
(3.38514e-07 -2.98344e-26 -1.50066e-08)
(3.27942e-07 -1.30856e-24 -1.79784e-08)
(3.15501e-07 -3.35292e-26 -2.13409e-08)
(3.01121e-07 6.33242e-26 -2.50337e-08)
(2.84597e-07 1.67786e-25 -2.89634e-08)
(2.65626e-07 -9.83304e-26 -3.30881e-08)
(2.43907e-07 6.18563e-26 -3.7463e-08)
(2.19269e-07 -9.95102e-25 -4.21654e-08)
(1.91555e-07 2.05317e-25 -4.72293e-08)
(1.60595e-07 -1.96769e-25 -5.26464e-08)
(1.26137e-07 1.72716e-24 -5.84048e-08)
(8.79482e-08 4.96144e-26 -6.45191e-08)
(4.57788e-08 4.799e-26 -7.10146e-08)
(-6.30033e-10 3.37464e-25 -7.7853e-08)
(-5.14507e-08 6.80519e-26 -8.48566e-08)
(-1.06774e-07 -4.85429e-25 -9.19222e-08)
(-1.66785e-07 -4.95962e-25 -9.90401e-08)
(-2.3165e-07 -8.86129e-25 -1.06305e-07)
(-3.01584e-07 -5.27295e-25 -1.13558e-07)
(-3.76777e-07 6.22111e-26 -1.2116e-07)
(-4.57277e-07 -3.44402e-25 -1.2926e-07)
(-5.43142e-07 -4.52146e-24 -1.37509e-07)
(-6.3447e-07 -6.84524e-26 -1.45754e-07)
(-7.31289e-07 1.10847e-25 -1.5394e-07)
(-8.33435e-07 2.74154e-25 -1.62005e-07)
(-9.40726e-07 -9.81904e-24 -1.69819e-07)
(-1.05296e-06 4.47217e-25 -1.77233e-07)
(-1.16989e-06 2.48908e-25 -1.84107e-07)
(-1.29119e-06 -1.18977e-23 -1.90317e-07)
(-1.41642e-06 -1.26711e-24 -1.95745e-07)
(-1.54503e-06 2.88098e-26 -2.00246e-07)
(-1.67637e-06 -8.87712e-25 -2.03626e-07)
(-1.80972e-06 -1.72545e-23 -2.05646e-07)
(-1.94429e-06 1.22256e-24 -2.0603e-07)
(-2.07919e-06 -1.84599e-24 -2.04411e-07)
(-2.21346e-06 -2.2209e-23 -2.00213e-07)
(-2.34626e-06 -1.64635e-24 -1.92643e-07)
(-2.47735e-06 -2.52608e-23 -1.78686e-07)
(-2.61289e-06 -1.47642e-24 -1.62012e-07)
(-2.78609e-06 -2.75811e-23 -1.11791e-07)
(-3.16046e-06 -7.159e-25 -9.34307e-08)
(-4.17007e-06 -8.85065e-25 2.25883e-08)
(-8.24539e-06 -6.01424e-24 -1.44824e-07)
(-1.88889e-05 3.4467e-24 -9.27262e-07)
(-2.08002e-05 -5.28425e-25 8.66146e-07)
(-1.93091e-05 2.89109e-24 1.50293e-06)
(-1.75378e-05 -1.58432e-22 2.79884e-06)
(-1.50753e-05 -4.37952e-24 3.57304e-06)
(-1.226e-05 -6.72054e-24 4.32886e-06)
(-9.08108e-06 2.53175e-23 4.87524e-06)
(-5.76607e-06 -5.5055e-24 5.2507e-06)
(-2.99376e-06 2.16782e-23 5.51956e-06)
(2.11087e-07 2.99862e-30 2.69478e-10)
(2.11626e-07 1.84955e-28 7.3526e-10)
(2.11879e-07 3.90729e-27 1.09469e-09)
(2.12372e-07 7.6568e-26 1.45205e-09)
(2.13127e-07 9.86106e-25 1.86718e-09)
(2.14093e-07 1.05304e-24 2.33268e-09)
(2.15202e-07 1.15815e-24 2.82647e-09)
(2.16463e-07 1.0402e-24 3.31519e-09)
(2.17892e-07 -2.02948e-24 3.79542e-09)
(2.19497e-07 8.09965e-25 4.27109e-09)
(2.21277e-07 -2.09619e-24 4.74676e-09)
(2.23227e-07 8.99683e-25 5.22715e-09)
(2.25334e-07 -2.08788e-24 5.71436e-09)
(2.27576e-07 8.13422e-25 6.18659e-09)
(2.29971e-07 -2.1518e-24 6.60439e-09)
(2.32571e-07 9.49747e-25 6.96272e-09)
(2.35407e-07 -2.27797e-24 7.29842e-09)
(2.38474e-07 -2.3889e-24 7.66122e-09)
(2.41724e-07 9.51127e-25 8.08748e-09)
(2.45089e-07 -2.31054e-24 8.54845e-09)
(2.48588e-07 -2.61128e-24 9.00409e-09)
(2.52226e-07 -2.47209e-24 9.45777e-09)
(2.55984e-07 -1.07853e-25 9.91308e-09)
(2.59832e-07 -3.94381e-26 1.0335e-08)
(2.63806e-07 -1.16224e-24 1.06726e-08)
(2.67967e-07 -6.49022e-26 1.0931e-08)
(2.72331e-07 -1.38755e-24 1.11584e-08)
(2.76865e-07 1.10215e-24 1.13973e-08)
(2.81514e-07 -2.42516e-24 1.16596e-08)
(2.8623e-07 -2.91962e-24 1.1922e-08)
(2.90999e-07 -2.7165e-24 1.2143e-08)
(2.95838e-07 -4.14635e-26 1.22907e-08)
(3.00776e-07 4.62884e-25 1.23645e-08)
(3.05821e-07 1.38078e-24 1.23954e-08)
(3.10934e-07 1.7636e-24 1.24228e-08)
(3.16039e-07 1.65802e-24 1.24465e-08)
(3.21096e-07 1.74375e-24 1.24237e-08)
(3.26102e-07 1.39303e-24 1.2325e-08)
(3.31045e-07 1.9941e-24 1.21458e-08)
(3.35902e-07 1.95637e-24 1.18836e-08)
(3.40641e-07 1.8596e-24 1.15332e-08)
(3.45227e-07 1.65079e-24 1.10874e-08)
(3.49614e-07 2.02939e-24 1.05391e-08)
(3.53752e-07 1.94223e-24 9.88339e-09)
(3.57578e-07 1.59254e-24 9.11002e-09)
(3.61024e-07 -1.66882e-24 8.17204e-09)
(3.64087e-07 1.75798e-24 7.0187e-09)
(3.66763e-07 2.00538e-24 5.6614e-09)
(3.68981e-07 2.11787e-24 4.1514e-09)
(3.70601e-07 2.03004e-24 2.50568e-09)
(3.71501e-07 2.08778e-24 6.78055e-10)
(3.71612e-07 2.00102e-24 -1.37938e-09)
(3.7085e-07 2.24224e-24 -3.68641e-09)
(3.69106e-07 1.95912e-24 -6.2806e-09)
(3.6631e-07 1.89853e-25 -9.18951e-09)
(3.62361e-07 1.88489e-24 -1.23926e-08)
(3.57097e-07 2.17885e-24 -1.58867e-08)
(3.50351e-07 2.05343e-24 -1.97064e-08)
(3.41964e-07 1.98234e-24 -2.39018e-08)
(3.31795e-07 1.92894e-24 -2.85481e-08)
(3.19759e-07 1.68503e-24 -3.36902e-08)
(3.05726e-07 1.75318e-24 -3.93035e-08)
(2.89501e-07 1.87219e-24 -4.5342e-08)
(2.70835e-07 1.24064e-24 -5.17907e-08)
(2.49481e-07 1.39599e-24 -5.86903e-08)
(2.25249e-07 1.6961e-24 -6.60981e-08)
(1.9796e-07 9.13593e-26 -7.40488e-08)
(1.67412e-07 3.83554e-25 -8.25481e-08)
(1.33366e-07 -1.69398e-24 -9.15943e-08)
(9.55978e-08 9.06542e-25 -1.01193e-07)
(5.3892e-08 -4.01688e-25 -1.11345e-07)
(8.05766e-09 -3.08532e-25 -1.2202e-07)
(-4.21293e-08 -1.21343e-25 -1.33182e-07)
(-9.69399e-08 2.1997e-25 -1.44809e-07)
(-1.56588e-07 -2.22315e-25 -1.56885e-07)
(-2.21227e-07 6.58869e-25 -1.6937e-07)
(-2.91023e-07 -2.33272e-25 -1.82176e-07)
(-3.66108e-07 1.43699e-24 -1.95294e-07)
(-4.4655e-07 -2.70365e-24 -2.08686e-07)
(-5.32444e-07 4.0934e-24 -2.22183e-07)
(-6.23866e-07 -9.88283e-25 -2.35663e-07)
(-7.2083e-07 2.40793e-24 -2.49027e-07)
(-8.23237e-07 -4.37388e-24 -2.62149e-07)
(-9.30943e-07 4.10509e-24 -2.74855e-07)
(-1.04376e-06 5.67862e-24 -2.86945e-07)
(-1.16144e-06 -6.17445e-24 -2.98215e-07)
(-1.28365e-06 5.4977e-24 -3.0846e-07)
(-1.40996e-06 -3.87985e-24 -3.17469e-07)
(-1.53987e-06 6.57796e-24 -3.25e-07)
(-1.67275e-06 -7.81192e-24 -3.30779e-07)
(-1.80792e-06 1.53456e-23 -3.34498e-07)
(-1.94464e-06 1.76737e-24 -3.35831e-07)
(-2.0821e-06 -1.00147e-23 -3.34408e-07)
(-2.21952e-06 1.69273e-23 -3.29784e-07)
(-2.35632e-06 -6.21832e-24 -3.21507e-07)
(-2.49285e-06 2.23317e-23 -3.08224e-07)
(-2.63599e-06 -1.07085e-23 -2.93991e-07)
(-2.81706e-06 1.25761e-23 -2.61505e-07)
(-3.1968e-06 -1.09293e-23 -2.62691e-07)
(-4.16491e-06 1.76935e-23 -2.20895e-07)
(-8.31497e-06 2.02953e-23 -2.58592e-07)
(-1.96987e-05 -8.06119e-23 1.78375e-07)
(-2.11908e-05 1.04603e-22 2.16566e-06)
(-2.02535e-05 2.22587e-23 3.17158e-06)
(-1.84425e-05 1.51735e-22 4.8737e-06)
(-1.59651e-05 -6.91864e-23 6.12445e-06)
(-1.30071e-05 5.5039e-23 7.27257e-06)
(-9.64741e-06 -4.90631e-23 8.15207e-06)
(-6.12915e-06 2.70318e-23 8.75309e-06)
(-3.18398e-06 -2.2876e-23 9.18968e-06)
(2.105e-07 1.28672e-28 3.29786e-10)
(2.11099e-07 3.58883e-27 9.71649e-10)
(2.11389e-07 6.23525e-26 1.53801e-09)
(2.11865e-07 1.03789e-24 2.09935e-09)
(2.12587e-07 -1.0958e-24 2.70862e-09)
(2.1352e-07 -1.13714e-24 3.34164e-09)
(2.1462e-07 -9.75383e-25 3.99031e-09)
(2.15884e-07 1.80755e-26 4.64038e-09)
(2.17317e-07 9.11259e-25 5.28832e-09)
(2.18922e-07 -1.03411e-24 5.93494e-09)
(2.20701e-07 1.00173e-24 6.58213e-09)
(2.22649e-07 1.27259e-25 7.23063e-09)
(2.24762e-07 9.3885e-25 7.87663e-09)
(2.27035e-07 -1.01557e-24 8.50501e-09)
(2.29476e-07 1.02948e-24 9.09648e-09)
(2.32109e-07 1.31758e-25 9.65056e-09)
(2.34946e-07 1.03573e-24 1.01884e-08)
(2.37982e-07 1.2941e-24 1.07384e-08)
(2.41194e-07 1.33859e-24 1.13196e-08)
(2.44551e-07 1.13305e-24 1.19194e-08)
(2.48053e-07 1.18903e-24 1.25178e-08)
(2.51696e-07 1.21066e-24 1.31102e-08)
(2.55473e-07 -2.50904e-26 1.36885e-08)
(2.59376e-07 -1.35226e-24 1.42295e-08)
(2.6342e-07 9.42756e-25 1.47084e-08)
(2.67632e-07 -2.94862e-24 1.51283e-08)
(2.72014e-07 2.80076e-24 1.55137e-08)
(2.76546e-07 1.51374e-24 1.58869e-08)
(2.81198e-07 1.25171e-24 1.62529e-08)
(2.85944e-07 1.66291e-24 1.65965e-08)
(2.9077e-07 1.2807e-24 1.68919e-08)
(2.95679e-07 -7.49831e-26 1.71191e-08)
(3.00678e-07 -3.06243e-24 1.72755e-08)
(3.0576e-07 -1.51432e-24 1.73757e-08)
(3.10897e-07 -7.30108e-26 1.7436e-08)
(3.16045e-07 -1.68801e-24 1.74506e-08)
(3.21175e-07 -1.73842e-24 1.73939e-08)
(3.26267e-07 -1.88827e-24 1.72458e-08)
(3.31304e-07 -1.53684e-24 1.69953e-08)
(3.36261e-07 -1.89959e-24 1.6633e-08)
(3.4111e-07 -1.78941e-24 1.61494e-08)
(3.45814e-07 -8.15535e-26 1.55343e-08)
(3.50328e-07 -1.758e-24 1.47769e-08)
(3.54606e-07 -2.1672e-24 1.38639e-08)
(3.58598e-07 -1.92628e-24 1.27727e-08)
(3.62256e-07 -1.97531e-24 1.14658e-08)
(3.65547e-07 -1.66109e-24 9.91113e-09)
(3.68433e-07 -1.76162e-24 8.10794e-09)
(3.70842e-07 -9.24286e-26 6.07147e-09)
(3.72671e-07 -2.0419e-24 3.7957e-09)
(3.73824e-07 -1.90346e-24 1.24425e-09)
(3.74218e-07 -2.45264e-26 -1.61994e-09)
(3.73768e-07 -8.32677e-26 -4.82913e-09)
(3.7237e-07 -4.00836e-24 -8.4192e-09)
(3.69932e-07 -2.25782e-25 -1.24168e-08)
(3.66344e-07 -6.8088e-26 -1.68337e-08)
(3.61464e-07 -3.78407e-24 -2.16891e-08)
(3.55143e-07 -2.07311e-24 -2.70203e-08)
(3.47238e-07 -1.90472e-24 -3.28779e-08)
(3.3761e-07 -5.45985e-26 -3.93226e-08)
(3.26125e-07 -1.78226e-24 -4.63903e-08)
(3.12626e-07 -1.71125e-24 -5.40817e-08)
(2.96922e-07 -1.29321e-24 -6.2391e-08)
(2.78794e-07 -2.08801e-24 -7.13301e-08)
(2.58025e-07 -1.99928e-24 -8.09383e-08)
(2.34422e-07 3.50087e-25 -9.1265e-08)
(2.07784e-07 4.53784e-25 -1.02343e-07)
(1.77889e-07 -6.58105e-25 -1.14183e-07)
(1.44504e-07 -1.70739e-25 -1.26789e-07)
(1.07401e-07 -1.56156e-24 -1.40168e-07)
(6.63515e-08 6.57265e-25 -1.54316e-07)
(2.11299e-08 4.28848e-25 -1.69215e-07)
(-2.85046e-08 -7.56016e-26 -1.84834e-07)
(-8.27702e-08 -8.67099e-25 -2.01151e-07)
(-1.41893e-07 7.07166e-25 -2.18131e-07)
(-2.06062e-07 1.01555e-24 -2.35714e-07)
(-2.75441e-07 -2.03569e-25 -2.53819e-07)
(-3.50186e-07 -1.01413e-24 -2.72361e-07)
(-4.30416e-07 2.73115e-24 -2.91224e-07)
(-5.16243e-07 3.02134e-25 -3.10248e-07)
(-6.07737e-07 1.22979e-24 -3.29282e-07)
(-7.04915e-07 -2.61951e-24 -3.48166e-07)
(-8.07719e-07 5.22658e-24 -3.66711e-07)
(-9.16036e-07 3.99905e-24 -3.84685e-07)
(-1.0297e-06 -6.03242e-24 -4.01834e-07)
(-1.14846e-06 7.0879e-24 -4.17883e-07)
(-1.272e-06 6.51092e-24 -4.32543e-07)
(-1.39993e-06 3.97693e-24 -4.45508e-07)
(-1.53174e-06 -6.28189e-24 -4.56442e-07)
(-1.66686e-06 9.46671e-24 -4.64989e-07)
(-1.80462e-06 4.33196e-25 -4.70779e-07)
(-1.94428e-06 -1.30844e-24 -4.73433e-07)
(-2.08505e-06 1.146e-23 -4.72568e-07)
(-2.22616e-06 2.11284e-24 -4.67812e-07)
(-2.36695e-06 1.13591e-23 -4.58885e-07)
(-2.50749e-06 4.85498e-25 -4.45229e-07)
(-2.65327e-06 1.41571e-23 -4.30525e-07)
(-2.83468e-06 1.47363e-23 -4.01575e-07)
(-3.20067e-06 1.42252e-23 -4.05529e-07)
(-4.17931e-06 -2.29813e-23 -3.49069e-07)
(-8.51424e-06 -1.89628e-23 -3.91419e-07)
(-2.14001e-05 9.9009e-23 -1.24156e-08)
(-2.30284e-05 -1.0882e-22 3.15027e-06)
(-2.21385e-05 -2.41992e-23 4.7831e-06)
(-2.01579e-05 -2.66965e-23 7.13286e-06)
(-1.74638e-05 1.12347e-22 8.95064e-06)
(-1.42234e-05 -9.5557e-24 1.05626e-05)
(-1.05488e-05 -7.77054e-24 1.18145e-05)
(-6.70081e-06 -1.84499e-23 1.26683e-05)
(-3.48038e-06 4.53388e-23 1.32902e-05)
(2.09759e-07 4.39718e-29 4.02785e-10)
(2.10388e-07 1.39217e-27 1.22374e-09)
(2.10689e-07 2.22666e-26 1.98632e-09)
(2.11154e-07 8.62856e-28 2.74311e-09)
(2.11858e-07 -8.04438e-26 3.54457e-09)
(2.12774e-07 -5.72105e-26 4.35301e-09)
(2.13866e-07 -2.30004e-26 5.16892e-09)
(2.15129e-07 3.07232e-26 5.9878e-09)
(2.16562e-07 -4.12447e-27 6.80773e-09)
(2.18167e-07 -4.06419e-26 7.62903e-09)
(2.19945e-07 5.7982e-27 8.45181e-09)
(2.21896e-07 7.10685e-26 9.27278e-09)
(2.24021e-07 -6.65274e-26 1.00851e-08)
(2.26319e-07 -4.77334e-26 1.08792e-08)
(2.28792e-07 4.95615e-26 1.16469e-08)
(2.31447e-07 -8.97299e-28 1.23899e-08)
(2.34288e-07 3.75816e-26 1.31205e-08)
(2.3731e-07 -2.93432e-26 1.38538e-08)
(2.40504e-07 1.37354e-25 1.45996e-08)
(2.43858e-07 9.20693e-26 1.53533e-08)
(2.47365e-07 2.14713e-26 1.61034e-08)
(2.51024e-07 -1.82439e-25 1.68391e-08)
(2.5483e-07 -2.13497e-25 1.75492e-08)
(2.58782e-07 2.17657e-25 1.82196e-08)
(2.62882e-07 5.26367e-26 1.88396e-08)
(2.67138e-07 -4.36485e-25 1.94117e-08)
(2.71548e-07 -1.31943e-26 1.99479e-08)
(2.761e-07 -1.35746e-25 2.04577e-08)
(2.80777e-07 1.9056e-26 2.09401e-08)
(2.85565e-07 -1.74736e-25 2.13828e-08)
(2.90453e-07 -3.92901e-25 2.17683e-08)
(2.95434e-07 -2.73982e-25 2.20828e-08)
(3.00501e-07 -6.35216e-25 2.23229e-08)
(3.05642e-07 3.70156e-26 2.24927e-08)
(3.10838e-07 -4.89042e-25 2.25947e-08)
(3.1606e-07 -8.68169e-26 2.262e-08)
(3.21282e-07 -8.25914e-26 2.25504e-08)
(3.26483e-07 -1.28704e-25 2.23678e-08)
(3.31642e-07 4.37391e-26 2.20562e-08)
(3.36732e-07 -3.31092e-25 2.16026e-08)
(3.41724e-07 -8.31536e-26 2.0996e-08)
(3.46583e-07 3.35069e-25 2.02247e-08)
(3.51269e-07 -8.63025e-26 1.92712e-08)
(3.55741e-07 -1.09829e-25 1.81113e-08)
(3.59958e-07 -1.15415e-25 1.67165e-08)
(3.63871e-07 -2.69774e-25 1.50564e-08)
(3.67434e-07 -4.88713e-26 1.31074e-08)
(3.70593e-07 -9.82946e-26 1.08595e-08)
(3.73279e-07 -3.01791e-25 8.30425e-09)
(3.75413e-07 -9.71166e-26 5.41963e-09)
(3.76907e-07 -2.64346e-26 2.16981e-09)
(3.77678e-07 -3.46218e-26 -1.48021e-09)
(3.77635e-07 2.01041e-26 -5.56967e-09)
(3.76681e-07 -1.74797e-25 -1.01378e-08)
(3.74716e-07 2.65233e-26 -1.52185e-08)
(3.71623e-07 5.61218e-26 -2.08428e-08)
(3.67274e-07 -1.90437e-25 -2.70456e-08)
(3.6153e-07 -3.8132e-26 -3.38712e-08)
(3.54256e-07 -6.60335e-26 -4.13713e-08)
(3.45303e-07 2.34766e-25 -4.95975e-08)
(3.34516e-07 -4.93681e-26 -5.8585e-08)
(3.21726e-07 2.4988e-25 -6.83604e-08)
(3.06748e-07 3.8589e-25 -7.89476e-08)
(2.89377e-07 -4.33637e-25 -9.0377e-08)
(2.69413e-07 -3.39407e-25 -1.02697e-07)
(2.46655e-07 -9.95955e-26 -1.15957e-07)
(2.20882e-07 7.26267e-25 -1.30184e-07)
(1.9186e-07 -8.21178e-25 -1.45391e-07)
(1.59359e-07 -6.09805e-26 -1.61593e-07)
(1.23141e-07 -1.07731e-25 -1.78797e-07)
(8.29673e-08 1.77148e-25 -1.97004e-07)
(3.85972e-08 9.1219e-25 -2.16198e-07)
(-1.02127e-08 1.43864e-26 -2.36343e-07)
(-6.36983e-08 -1.64912e-24 -2.57414e-07)
(-1.22088e-07 -1.00251e-24 -2.79375e-07)
(-1.85592e-07 2.68074e-24 -3.02135e-07)
(-2.54414e-07 -1.70725e-24 -3.2559e-07)
(-3.2873e-07 1.47063e-26 -3.49631e-07)
(-4.08677e-07 1.1958e-25 -3.74104e-07)
(-4.94387e-07 2.11164e-25 -3.98831e-07)
(-5.85947e-07 -3.9754e-25 -4.23618e-07)
(-6.83394e-07 2.50652e-25 -4.48248e-07)
(-7.86708e-07 2.10744e-24 -4.7247e-07)
(-8.95807e-07 -5.03504e-24 -4.95996e-07)
(-1.01055e-06 2.30273e-24 -5.18506e-07)
(-1.13071e-06 3.03362e-24 -5.39651e-07)
(-1.256e-06 2.02874e-25 -5.59055e-07)
(-1.38604e-06 -2.54643e-24 -5.76316e-07)
(-1.52035e-06 -5.28394e-25 -5.9101e-07)
(-1.65837e-06 -3.87772e-25 -6.02703e-07)
(-1.79943e-06 -1.75308e-24 -6.1095e-07)
(-1.9428e-06 6.23595e-24 -6.15305e-07)
(-2.08766e-06 -2.5972e-24 -6.15343e-07)
(-2.23317e-06 1.28727e-24 -6.10685e-07)
(-2.37851e-06 1.18942e-24 -6.01068e-07)
(-2.52347e-06 -8.43837e-25 -5.86145e-07)
(-2.67262e-06 3.30796e-24 -5.69132e-07)
(-2.85672e-06 5.2451e-25 -5.36222e-07)
(-3.22047e-06 -1.50659e-24 -5.3649e-07)
(-4.21212e-06 -9.33767e-25 -4.48971e-07)
(-8.60868e-06 5.63352e-23 -5.09732e-07)
(-2.36418e-05 2.0438e-23 -1.14415e-07)
(-2.55705e-05 -3.50195e-24 4.19761e-06)
(-2.46723e-05 1.732e-23 6.48524e-06)
(-2.24716e-05 -3.39008e-24 9.60144e-06)
(-1.94884e-05 1.37542e-23 1.2059e-05)
(-1.58771e-05 -8.94631e-24 1.42047e-05)
(-1.17784e-05 -5.84019e-23 1.58765e-05)
(-7.48246e-06 1.60588e-22 1.70152e-05)
(-3.8858e-06 9.75733e-23 1.78441e-05)
(2.08849e-07 2.96129e-29 4.8176e-10)
(2.09486e-07 8.27936e-28 1.48757e-09)
(2.09787e-07 1.26881e-26 2.44003e-09)
(2.10247e-07 -9.04732e-26 3.38293e-09)
(2.10942e-07 7.12177e-26 4.37198e-09)
(2.11848e-07 4.54209e-26 5.35844e-09)
(2.12936e-07 2.79161e-26 6.34728e-09)
(2.14196e-07 -7.35355e-26 7.33928e-09)
(2.15627e-07 -1.07539e-24 8.3347e-09)
(2.1723e-07 -2.32163e-26 9.33343e-09)
(2.19009e-07 -9.84934e-25 1.03317e-08)
(2.20968e-07 -1.00019e-25 1.13233e-08)
(2.23107e-07 -1.13731e-24 1.23035e-08)
(2.25425e-07 -9.2027e-26 1.32681e-08)
(2.2792e-07 -9.81254e-25 1.42144e-08)
(2.30591e-07 -1.06592e-25 1.51441e-08)
(2.33438e-07 -1.33959e-24 1.60641e-08)
(2.36457e-07 -9.58779e-25 1.69817e-08)
(2.39647e-07 1.07845e-24 1.78998e-08)
(2.43004e-07 -1.39772e-24 1.88134e-08)
(2.46525e-07 -1.26562e-24 1.97136e-08)
(2.50209e-07 -1.1315e-24 2.0591e-08)
(2.54051e-07 -1.06929e-25 2.14374e-08)
(2.58046e-07 -1.1454e-24 2.22455e-08)
(2.62192e-07 -3.58431e-26 2.30107e-08)
(2.66489e-07 -8.39175e-25 2.37347e-08)
(2.70934e-07 1.28173e-25 2.44213e-08)
(2.7552e-07 9.0436e-25 2.50704e-08)
(2.8024e-07 -1.67872e-24 2.56763e-08)
(2.85083e-07 -1.78838e-24 2.62291e-08)
(2.90039e-07 -1.14427e-24 2.67163e-08)
(2.95097e-07 -1.52414e-25 2.71274e-08)
(3.00243e-07 -1.63726e-24 2.74569e-08)
(3.05463e-07 2.14865e-25 2.77017e-08)
(3.10743e-07 -1.3153e-25 2.78563e-08)
(3.16064e-07 2.63556e-25 2.79094e-08)
(3.21403e-07 -7.5783e-26 2.78433e-08)
(3.26739e-07 1.55565e-24 2.76387e-08)
(3.32047e-07 2.15695e-25 2.72797e-08)
(3.373e-07 -1.64558e-25 2.67521e-08)
(3.42468e-07 -2.11694e-25 2.60411e-08)
(3.4752e-07 -1.52411e-25 2.51282e-08)
(3.52424e-07 -2.98036e-26 2.39889e-08)
(3.57143e-07 -1.69578e-25 2.25948e-08)
(3.61635e-07 -4.67003e-25 2.0917e-08)
(3.65849e-07 -1.71477e-24 1.89294e-08)
(3.69731e-07 -1.03585e-25 1.66087e-08)
(3.73224e-07 -2.24833e-25 1.39346e-08)
(3.76268e-07 -1.84506e-25 1.08823e-08)
(3.78792e-07 9.24014e-26 7.41896e-09)
(3.80716e-07 -1.84201e-25 3.50575e-09)
(3.81953e-07 -2.46219e-25 -8.9554e-10)
(3.82417e-07 -2.1467e-25 -5.82935e-09)
(3.8201e-07 1.39041e-25 -1.13399e-08)
(3.80631e-07 1.83667e-24 -1.74731e-08)
(3.78164e-07 -7.37391e-26 -2.42722e-08)
(3.74487e-07 -1.75471e-25 -3.17836e-08)
(3.69466e-07 -1.36186e-25 -4.00599e-08)
(3.62963e-07 -3.01542e-25 -4.91508e-08)
(3.54827e-07 -1.34559e-25 -5.91096e-08)
(3.44896e-07 -3.32031e-25 -6.99853e-08)
(3.32999e-07 -6.88872e-26 -8.18226e-08)
(3.18948e-07 1.85395e-24 -9.46642e-08)
(3.02552e-07 -3.99537e-25 -1.08561e-07)
(2.83615e-07 -8.72697e-25 -1.2357e-07)
(2.61921e-07 3.07824e-25 -1.39736e-07)
(2.37233e-07 7.92566e-25 -1.57088e-07)
(2.09312e-07 4.76762e-25 -1.75649e-07)
(1.77926e-07 -8.08405e-25 -1.95439e-07)
(1.42829e-07 -9.80869e-25 -2.16471e-07)
(1.03769e-07 7.81337e-26 -2.38749e-07)
(6.04971e-08 1.16919e-24 -2.62265e-07)
(1.27564e-08 -5.38287e-25 -2.86993e-07)
(-3.97255e-08 -1.75264e-24 -3.1289e-07)
(-9.71739e-08 2.01191e-24 -3.39891e-07)
(-1.59835e-07 4.90178e-25 -3.67915e-07)
(-2.27929e-07 -2.26893e-24 -3.96852e-07)
(-3.01658e-07 2.61759e-25 -4.26537e-07)
(-3.81198e-07 1.925e-24 -4.56799e-07)
(-4.66706e-07 1.98743e-24 -4.87435e-07)
(-5.58295e-07 -2.64104e-24 -5.18204e-07)
(-6.56035e-07 1.07611e-24 -5.4884e-07)
(-7.59939e-07 2.96167e-24 -5.79035e-07)
(-8.69965e-07 2.88095e-24 -6.08439e-07)
(-9.86002e-07 -1.97522e-24 -6.36661e-07)
(-1.10787e-06 3.19925e-24 -6.63272e-07)
(-1.2353e-06 5.41136e-24 -6.87807e-07)
(-1.36793e-06 -4.78714e-24 -7.09775e-07)
(-1.5053e-06 1.33804e-25 -7.28665e-07)
(-1.64687e-06 2.78048e-24 -7.4395e-07)
(-1.79196e-06 7.88661e-24 -7.55093e-07)
(-1.93983e-06 -2.49828e-24 -7.61562e-07)
(-2.08963e-06 3.11976e-24 -7.62855e-07)
(-2.24042e-06 9.83916e-24 -7.58522e-07)
(-2.39125e-06 2.00178e-24 -7.48222e-07)
(-2.54167e-06 1.21129e-23 -7.31555e-07)
(-2.69584e-06 6.92763e-26 -7.1151e-07)
(-2.88529e-06 1.23917e-23 -6.72321e-07)
(-3.25449e-06 -5.40167e-24 -6.68541e-07)
(-4.26277e-06 4.67132e-25 -5.53717e-07)
(-8.70784e-06 3.07426e-24 -6.29934e-07)
(-2.65699e-05 2.20321e-23 -1.18186e-07)
(-2.89616e-05 -2.69324e-23 5.39807e-06)
(-2.80174e-05 -4.16804e-23 8.39321e-06)
(-2.55198e-05 1.11336e-22 1.23801e-05)
(-2.21412e-05 1.06604e-22 1.55549e-05)
(-1.80404e-05 8.29136e-23 1.83084e-05)
(-1.33849e-05 -1.68258e-22 2.04555e-05)
(-8.50303e-06 -4.6265e-23 2.19168e-05)
(-4.41455e-06 1.14786e-22 2.298e-05)
(2.0776e-07 3.16962e-29 5.68495e-10)
(2.08393e-07 6.4713e-28 1.76294e-09)
(2.08692e-07 1.32569e-26 2.89818e-09)
(2.09149e-07 -3.26434e-26 4.02086e-09)
(2.0984e-07 -5.66135e-26 5.19503e-09)
(2.10742e-07 -7.12082e-27 6.36118e-09)
(2.11826e-07 4.70616e-26 7.52735e-09)
(2.13082e-07 8.39285e-26 8.69768e-09)
(2.14509e-07 9.68016e-25 9.87165e-09)
(2.16112e-07 1.17645e-24 1.10456e-08)
(2.17897e-07 1.18931e-24 1.22146e-08)
(2.19866e-07 -1.04996e-26 1.33747e-08)
(2.22018e-07 1.00517e-24 1.45246e-08)
(2.2435e-07 1.26446e-24 1.5664e-08)
(2.26859e-07 1.20883e-24 1.6792e-08)
(2.29542e-07 -2.42855e-26 1.79086e-08)
(2.32396e-07 1.12029e-24 1.90163e-08)
(2.3542e-07 1.25303e-24 2.01163e-08)
(2.38618e-07 5.17616e-26 2.12066e-08)
(2.4199e-07 1.0119e-24 2.22811e-08)
(2.45535e-07 1.21334e-24 2.33327e-08)
(2.49249e-07 1.23412e-24 2.43564e-08)
(2.53126e-07 -1.02841e-25 2.53485e-08)
(2.5716e-07 1.37508e-24 2.63055e-08)
(2.61347e-07 -4.26173e-27 2.7225e-08)
(2.65683e-07 1.7596e-24 2.81065e-08)
(2.70169e-07 -2.15093e-24 2.89474e-08)
(2.74803e-07 -2.80738e-25 2.97405e-08)
(2.79579e-07 1.06055e-24 3.04768e-08)
(2.84487e-07 1.29066e-24 3.11479e-08)
(2.89519e-07 1.54025e-24 3.1746e-08)
(2.9466e-07 -1.21377e-25 3.22627e-08)
(2.99895e-07 1.52075e-24 3.26899e-08)
(3.05211e-07 2.64541e-25 3.30186e-08)
(3.10599e-07 -2.77044e-24 3.32367e-08)
(3.16044e-07 -2.53661e-25 3.33291e-08)
(3.21525e-07 -3.19621e-24 3.32783e-08)
(3.2702e-07 -1.60487e-25 3.30667e-08)
(3.32502e-07 -1.76654e-25 3.2678e-08)
(3.37946e-07 -3.6865e-24 3.20949e-08)
(3.43324e-07 -3.17908e-25 3.12966e-08)
(3.48612e-07 -3.59647e-24 3.02577e-08)
(3.53779e-07 -3.08528e-25 2.895e-08)
(3.58791e-07 -3.59456e-24 2.73445e-08)
(3.63601e-07 -2.11996e-25 2.54142e-08)
(3.6816e-07 2.09899e-24 2.3133e-08)
(3.72411e-07 -3.70078e-24 2.04725e-08)
(3.76302e-07 -3.30943e-25 1.74006e-08)
(3.79778e-07 -3.80287e-24 1.38806e-08)
(3.82775e-07 -3.6941e-25 9.87291e-09)
(3.85212e-07 -4.25967e-24 5.33475e-09)
(3.87006e-07 -4.4232e-24 2.24332e-10)
(3.88071e-07 -4.3867e-24 -5.50971e-09)
(3.88315e-07 -2.06243e-25 -1.192e-08)
(3.87636e-07 -3.35061e-25 -1.90601e-08)
(3.85923e-07 -3.86429e-24 -2.69841e-08)
(3.83053e-07 -3.10408e-25 -3.57497e-08)
(3.78894e-07 -3.84063e-24 -4.54168e-08)
(3.73307e-07 -3.74066e-25 -5.60419e-08)
(3.66142e-07 -4.1856e-24 -6.76873e-08)
(3.57236e-07 -3.91853e-25 -8.04127e-08)
(3.46414e-07 -4.22301e-24 -9.42756e-08)
(3.33494e-07 6.34276e-25 -1.09337e-07)
(3.18291e-07 -1.13383e-25 -1.25666e-07)
(3.00599e-07 -4.04819e-24 -1.43323e-07)
(2.80187e-07 -2.89448e-24 -1.62354e-07)
(2.56808e-07 8.13449e-25 -1.82794e-07)
(2.30225e-07 1.33168e-25 -2.0468e-07)
(2.00196e-07 1.32863e-24 -2.28041e-07)
(1.66468e-07 -9.83099e-25 -2.52899e-07)
(1.28782e-07 6.39842e-26 -2.79269e-07)
(8.68701e-08 2.79042e-24 -3.07149e-07)
(4.04514e-08 4.54747e-25 -3.36509e-07)
(-1.07615e-08 -3.48063e-24 -3.67284e-07)
(-6.70378e-08 1.5754e-25 -3.99419e-07)
(-1.28637e-07 3.47509e-24 -4.32828e-07)
(-1.95805e-07 -3.99645e-24 -4.67367e-07)
(-2.68774e-07 2.85202e-25 -5.02872e-07)
(-3.47762e-07 2.15678e-24 -5.39138e-07)
(-4.32958e-07 -2.50921e-24 -5.75926e-07)
(-5.24512e-07 -3.25145e-24 -6.12957e-07)
(-6.22531e-07 1.78748e-24 -6.49914e-07)
(-7.27073e-07 5.7392e-24 -6.86435e-07)
(-8.38141e-07 -1.00333e-23 -7.22105e-07)
(-9.5567e-07 1.00128e-24 -7.56457e-07)
(-1.07952e-06 7.11715e-24 -7.8898e-07)
(-1.20945e-06 -5.01741e-24 -8.19126e-07)