/*--------------------------------*- C++ -*----------------------------------*\
| =========                 |                                                 |
| \\      /  F ield         | OpenFOAM: The Open Source CFD Toolbox           |
|  \\    /   O peration     | Version:  v2106                                 |
|   \\  /    A nd           | Website:  www.openfoam.com                      |
|    \\/     M anipulation  |                                                 |
\*---------------------------------------------------------------------------*/
FoamFile
{
    version     2.0;
    format      ascii;
    arch        "LSB;label=32;scalar=64";
    class       volScalarField;
    location    "0.5";
    object      k;
}
// * * * * * * * * * * * * * * * * * * * * * * * * * * * * * * * * * * * * * //

dimensions      [0 2 -2 0 0 0 0];

internalField   nonuniform List<scalar> 
29678
(
0.000156236
0.000204251
0.000211712
0.000213564
0.000214194
0.000214437
0.000214531
0.000214564
0.000214576
0.000214579
0.000214581
0.000214581
0.000214582
0.000214583
0.000214584
0.000214585
0.000214586
0.000214587
0.000214588
0.000214589
0.00021459
0.000214592
0.000214593
0.000214594
0.000214596
0.000214598
0.000214599
0.000214601
0.000214603
0.000214605
0.000214607
0.000214609
0.000214612
0.000214614
0.000214616
0.000214619
0.000214621
0.000214624
0.000214626
0.000214629
0.000214631
0.000214634
0.000214636
0.000214639
0.000214641
0.000214643
0.000214646
0.000214648
0.000214649
0.000214651
0.000214652
0.000214653
0.000214654
0.000214654
0.000214654
0.000214654
0.000214653
0.000214652
0.00021465
0.000214647
0.000214644
0.000214641
0.000214637
0.000214633
0.000214628
0.000214622
0.000214617
0.000214611
0.000214605
0.0002146
0.000214595
0.00021459
0.000214586
0.000214584
0.000214582
0.000214583
0.000214586
0.000214591
0.000214599
0.00021461
0.000214624
0.000214643
0.000214666
0.000214693
0.000214724
0.00021476
0.0002148
0.000214843
0.000214888
0.000214935
0.00021498
0.000215021
0.000215059
0.000215095
0.000215129
0.000215157
0.00021518
0.000215276
0.000215909
0.00022185
0.000222017
0.000221271
0.000221329
0.000220176
0.000219762
0.000218073
0.000218799
0.000217908
0.000218106
0.000217765
0.000156228
0.000204249
0.000211711
0.000213564
0.000214194
0.000214438
0.000214531
0.000214565
0.000214576
0.00021458
0.000214582
0.000214583
0.000214584
0.000214585
0.000214586
0.000214588
0.000214589
0.000214591
0.000214592
0.000214594
0.000214596
0.000214598
0.0002146
0.000214602
0.000214604
0.000214607
0.000214609
0.000214612
0.000214615
0.000214617
0.00021462
0.000214623
0.000214627
0.00021463
0.000214633
0.000214637
0.00021464
0.000214644
0.000214647
0.000214651
0.000214655
0.000214658
0.000214662
0.000214666
0.000214669
0.000214672
0.000214676
0.000214679
0.000214681
0.000214684
0.000214685
0.000214687
0.000214688
0.000214689
0.000214689
0.000214688
0.000214687
0.000214685
0.000214683
0.000214679
0.000214675
0.00021467
0.000214665
0.000214658
0.000214652
0.000214644
0.000214636
0.000214628
0.00021462
0.000214612
0.000214605
0.000214598
0.000214593
0.000214589
0.000214587
0.000214587
0.000214591
0.000214598
0.000214609
0.000214624
0.000214645
0.000214671
0.000214702
0.00021474
0.000214784
0.000214835
0.00021489
0.000214942
0.000214992
0.000215041
0.00021509
0.000215138
0.000215184
0.000215228
0.000215271
0.000215308
0.000215331
0.000215361
0.000215807
0.000219691
0.000220931
0.000221862
0.000220696
0.00022014
0.000219658
0.000218803
0.000218596
0.000217802
0.000217576
0.00021656
0.000156227
0.000204249
0.000211712
0.000213564
0.000214194
0.000214438
0.000214532
0.000214566
0.000214577
0.000214581
0.000214583
0.000214584
0.000214585
0.000214587
0.000214588
0.00021459
0.000214591
0.000214593
0.000214595
0.000214597
0.000214599
0.000214602
0.000214604
0.000214607
0.000214609
0.000214612
0.000214615
0.000214618
0.000214622
0.000214625
0.000214629
0.000214632
0.000214636
0.00021464
0.000214644
0.000214648
0.000214652
0.000214656
0.000214661
0.000214665
0.00021467
0.000214674
0.000214678
0.000214682
0.000214687
0.000214691
0.000214694
0.000214698
0.000214701
0.000214704
0.000214706
0.000214708
0.00021471
0.00021471
0.000214711
0.00021471
0.000214709
0.000214707
0.000214704
0.0002147
0.000214695
0.00021469
0.000214683
0.000214676
0.000214668
0.000214659
0.00021465
0.000214641
0.000214631
0.000214622
0.000214614
0.000214606
0.0002146
0.000214596
0.000214594
0.000214595
0.000214599
0.000214608
0.000214622
0.00021464
0.000214665
0.000214697
0.000214735
0.000214781
0.000214835
0.000214895
0.000214952
0.000215008
0.000215063
0.000215117
0.00021517
0.000215221
0.000215271
0.000215319
0.000215365
0.000215404
0.000215423
0.00021542
0.000215776
0.000219388
0.000219748
0.000220968
0.000218887
0.000219796
0.000218957
0.000218581
0.000218217
0.000217449
0.000217011
0.000216361
0.000156227
0.00020425
0.000211712
0.000213564
0.000214194
0.000214438
0.000214532
0.000214566
0.000214578
0.000214582
0.000214584
0.000214585
0.000214586
0.000214588
0.000214589
0.000214591
0.000214593
0.000214594
0.000214597
0.000214599
0.000214601
0.000214603
0.000214606
0.000214609
0.000214612
0.000214615
0.000214618
0.000214621
0.000214625
0.000214628
0.000214632
0.000214636
0.00021464
0.000214644
0.000214649
0.000214653
0.000214657
0.000214662
0.000214667
0.000214671
0.000214676
0.000214681
0.000214685
0.00021469
0.000214694
0.000214699
0.000214703
0.000214707
0.00021471
0.000214713
0.000214716
0.000214718
0.00021472
0.000214721
0.000214721
0.000214721
0.00021472
0.000214718
0.000214715
0.000214711
0.000214706
0.0002147
0.000214694
0.000214686
0.000214678
0.000214669
0.00021466
0.000214651
0.000214641
0.000214632
0.000214623
0.000214616
0.00021461
0.000214606
0.000214605
0.000214606
0.000214612
0.000214622
0.000214638
0.000214659
0.000214686
0.000214721
0.000214764
0.000214814
0.000214872
0.000214932
0.00021499
0.000215046
0.000215102
0.000215156
0.000215209
0.000215261
0.000215311
0.000215358
0.000215403
0.000215443
0.00021546
0.000215444
0.000215729
0.000218984
0.000219283
0.000219444
0.000218615
0.000219383
0.000218603
0.000218637
0.000218176
0.000217738
0.000217315
0.000216956
0.000156227
0.00020425
0.000211712
0.000213564
0.000214195
0.000214439
0.000214533
0.000214567
0.000214578
0.000214582
0.000214584
0.000214585
0.000214587
0.000214588
0.00021459
0.000214591
0.000214593
0.000214595
0.000214597
0.0002146
0.000214602
0.000214604
0.000214607
0.00021461
0.000214613
0.000214616
0.000214619
0.000214623
0.000214626
0.00021463
0.000214634
0.000214638
0.000214642
0.000214646
0.000214651
0.000214655
0.00021466
0.000214665
0.000214669
0.000214674
0.000214679
0.000214684
0.000214689
0.000214693
0.000214698
0.000214703
0.000214707
0.000214711
0.000214715
0.000214718
0.000214721
0.000214723
0.000214725
0.000214727
0.000214727
0.000214727
0.000214726
0.000214725
0.000214722
0.000214718
0.000214714
0.000214708
0.000214702
0.000214695
0.000214687
0.000214679
0.00021467
0.000214661
0.000214652
0.000214643
0.000214635
0.000214628
0.000214623
0.00021462
0.000214619
0.000214622
0.000214629
0.00021464
0.000214657
0.00021468
0.00021471
0.000214747
0.000214792
0.000214845
0.000214904
0.000214962
0.000215018
0.000215073
0.000215128
0.000215182
0.000215235
0.000215286
0.000215335
0.000215383
0.000215428
0.000215467
0.000215483
0.000215461
0.000215699
0.000218777
0.000218996
0.000219044
0.000218506
0.000219061
0.000217969
0.000218447
0.000217753
0.000217693
0.000217215
0.000217071
0.000156225
0.000204251
0.000211713
0.000213565
0.000214195
0.000214439
0.000214533
0.000214567
0.000214579
0.000214583
0.000214585
0.000214586
0.000214587
0.000214589
0.00021459
0.000214592
0.000214594
0.000214596
0.000214598
0.0002146
0.000214603
0.000214605
0.000214608
0.000214611
0.000214614
0.000214617
0.00021462
0.000214623
0.000214627
0.000214631
0.000214635
0.000214639
0.000214643
0.000214647
0.000214652
0.000214656
0.000214661
0.000214666
0.000214671
0.000214676
0.000214681
0.000214686
0.000214691
0.000214696
0.000214701
0.000214705
0.00021471
0.000214714
0.000214718
0.000214721
0.000214725
0.000214727
0.00021473
0.000214731
0.000214732
0.000214733
0.000214732
0.000214731
0.000214728
0.000214725
0.000214721
0.000214717
0.000214711
0.000214704
0.000214697
0.000214689
0.000214681
0.000214673
0.000214664
0.000214657
0.000214649
0.000214643
0.000214639
0.000214637
0.000214638
0.000214642
0.00021465
0.000214663
0.000214682
0.000214706
0.000214738
0.000214777
0.000214825
0.000214879
0.000214936
0.000214991
0.000215046
0.0002151
0.000215154
0.000215208
0.00021526
0.000215311
0.000215361
0.000215408
0.000215453
0.000215493
0.000215507
0.000215484
0.000215685
0.000218614
0.000218801
0.000218725
0.000218259
0.000218755
0.000217688
0.000218324
0.000217698
0.000217775
0.000217378
0.000217302
0.000156223
0.000204251
0.000211713
0.000213565
0.000214196
0.00021444
0.000214534
0.000214568
0.000214579
0.000214583
0.000214585
0.000214587
0.000214588
0.000214589
0.000214591
0.000214593
0.000214595
0.000214597
0.000214599
0.000214601
0.000214603
0.000214606
0.000214608
0.000214611
0.000214614
0.000214617
0.000214621
0.000214624
0.000214628
0.000214632
0.000214636
0.00021464
0.000214644
0.000214648
0.000214653
0.000214658
0.000214662
0.000214667
0.000214672
0.000214677
0.000214682
0.000214688
0.000214693
0.000214698
0.000214703
0.000214708
0.000214712
0.000214717
0.000214721
0.000214725
0.000214728
0.000214732
0.000214734
0.000214736
0.000214738
0.000214738
0.000214738
0.000214737
0.000214736
0.000214733
0.00021473
0.000214726
0.000214721
0.000214715
0.000214709
0.000214702
0.000214694
0.000214687
0.00021468
0.000214673
0.000214667
0.000214662
0.000214659
0.000214658
0.000214661
0.000214666
0.000214676
0.000214691
0.000214711
0.000214738
0.000214772
0.000214814
0.000214863
0.000214916
0.000214969
0.000215023
0.000215076
0.00021513
0.000215184
0.000215237
0.000215289
0.00021534
0.00021539
0.000215437
0.000215482
0.000215523
0.000215537
0.000215513
0.000215683
0.000218499
0.000218651
0.000218541
0.000218096
0.000218494
0.000217484
0.00021819
0.000217569
0.000217764
0.000217375
0.00021734
0.000156221
0.000204252
0.000211713
0.000213566
0.000214197
0.000214441
0.000214535
0.000214569
0.00021458
0.000214584
0.000214586
0.000214587
0.000214589
0.00021459
0.000214592
0.000214593
0.000214595
0.000214597
0.000214599
0.000214602
0.000214604
0.000214607
0.000214609
0.000214612
0.000214615
0.000214618
0.000214622
0.000214625
0.000214629
0.000214633
0.000214637
0.000214641
0.000214645
0.00021465
0.000214654
0.000214659
0.000214664
0.000214669
0.000214674
0.000214679
0.000214684
0.00021469
0.000214695
0.0002147
0.000214705
0.00021471
0.000214715
0.00021472
0.000214725
0.000214729
0.000214733
0.000214736
0.000214739
0.000214742
0.000214744
0.000214745
0.000214745
0.000214745
0.000214744
0.000214743
0.00021474
0.000214737
0.000214732
0.000214728
0.000214722
0.000214716
0.00021471
0.000214704
0.000214698
0.000214692
0.000214688
0.000214684
0.000214683
0.000214684
0.000214688
0.000214696
0.000214708
0.000214725
0.000214747
0.000214777
0.000214813
0.000214857
0.000214906
0.000214956
0.000215007
0.000215059
0.000215111
0.000215165
0.000215218
0.000215271
0.000215323
0.000215374
0.000215424
0.000215472
0.000215517
0.000215559
0.000215572
0.000215549
0.000215689
0.000218414
0.000218537
0.000218411
0.000218007
0.000218213
0.000217279
0.000218045
0.000217458
0.00021773
0.00021736
0.000217328
0.000156218
0.000204252
0.000211714
0.000213567
0.000214197
0.000214441
0.000214535
0.000214569
0.000214581
0.000214585
0.000214587
0.000214588
0.00021459
0.000214591
0.000214593
0.000214594
0.000214596
0.000214598
0.0002146
0.000214602
0.000214605
0.000214607
0.00021461
0.000214613
0.000214616
0.000214619
0.000214623
0.000214626
0.00021463
0.000214634
0.000214638
0.000214642
0.000214646
0.000214651
0.000214656
0.00021466
0.000214665
0.00021467
0.000214676
0.000214681
0.000214686
0.000214692
0.000214697
0.000214703
0.000214708
0.000214713
0.000214719
0.000214724
0.000214729
0.000214733
0.000214738
0.000214741
0.000214745
0.000214748
0.00021475
0.000214752
0.000214754
0.000214754
0.000214754
0.000214753
0.000214751
0.000214749
0.000214746
0.000214742
0.000214738
0.000214733
0.000214729
0.000214724
0.000214719
0.000214715
0.000214712
0.000214711
0.000214711
0.000214714
0.00021472
0.00021473
0.000214745
0.000214764
0.00021479
0.000214822
0.000214861
0.000214904
0.00021495
0.000214998
0.000215048
0.000215099
0.000215151
0.000215203
0.000215256
0.000215309
0.000215362
0.000215413
0.000215464
0.000215512
0.000215558
0.000215601
0.000215614
0.000215593
0.000215704
0.000218354
0.000218459
0.000218344
0.000217957
0.00021793
0.000217138
0.000217886
0.000217334
0.00021767
0.000217301
0.000217239
0.000156215
0.000204253
0.000211715
0.000213567
0.000214198
0.000214442
0.000214536
0.00021457
0.000214582
0.000214586
0.000214588
0.000214589
0.00021459
0.000214592
0.000214593
0.000214595
0.000214597
0.000214599
0.000214601
0.000214603
0.000214606
0.000214608
0.000214611
0.000214614
0.000214617
0.00021462
0.000214624
0.000214627
0.000214631
0.000214635
0.000214639
0.000214643
0.000214648
0.000214652
0.000214657
0.000214662
0.000214667
0.000214672
0.000214678
0.000214683
0.000214689
0.000214694
0.0002147
0.000214706
0.000214711
0.000214717
0.000214723
0.000214728
0.000214733
0.000214738
0.000214743
0.000214747
0.000214752
0.000214755
0.000214758
0.000214761
0.000214763
0.000214764
0.000214765
0.000214765
0.000214765
0.000214763
0.000214762
0.000214759
0.000214756
0.000214753
0.00021475
0.000214747
0.000214744
0.000214742
0.000214741
0.000214741
0.000214744
0.000214749
0.000214758
0.000214771
0.000214788
0.000214811
0.000214839
0.000214873
0.000214911
0.000214952
0.000214997
0.000215044
0.000215093
0.000215143
0.000215195
0.000215247
0.0002153
0.000215353
0.000215406
0.000215458
0.000215509
0.000215558
0.000215605
0.00021565
0.000215662
0.000215645
0.000215726
0.000218313
0.00021841
0.000218326
0.000217919
0.000217652
0.000217088
0.000217708
0.00021724
0.000217582
0.00021721
0.000217052
0.00015621
0.000204253
0.000211715
0.000213568
0.000214199
0.000214443
0.000214537
0.000214571
0.000214583
0.000214587
0.000214589
0.00021459
0.000214591
0.000214593
0.000214595
0.000214596
0.000214598
0.0002146
0.000214602
0.000214604
0.000214607
0.000214609
0.000214612
0.000214615
0.000214618
0.000214621
0.000214625
0.000214628
0.000214632
0.000214636
0.00021464
0.000214645
0.000214649
0.000214654
0.000214659
0.000214664
0.000214669
0.000214674
0.00021468
0.000214686
0.000214691
0.000214697
0.000214703
0.000214709
0.000214715
0.000214721
0.000214727
0.000214733
0.000214738
0.000214744
0.000214749
0.000214754
0.000214759
0.000214763
0.000214767
0.000214771
0.000214774
0.000214776
0.000214778
0.000214779
0.00021478
0.00021478
0.000214779
0.000214778
0.000214777
0.000214775
0.000214774
0.000214773
0.000214772
0.000214772
0.000214773
0.000214777
0.000214782
0.00021479
0.000214802
0.000214817
0.000214838
0.000214863
0.000214892
0.000214925
0.000214962
0.000215003
0.000215047
0.000215093
0.000215142
0.000215192
0.000215243
0.000215296
0.000215349
0.000215402
0.000215456
0.000215509
0.00021556
0.00021561
0.000215658
0.000215705
0.000215717
0.000215705
0.000215757
0.000218289
0.000218383
0.000218332
0.000217907
0.000217404
0.000217061
0.000217514
0.0002172
0.000217467
0.00021713
0.000216675
0.000156206
0.000204254
0.000211716
0.000213569
0.0002142
0.000214444
0.000214538
0.000214572
0.000214584
0.000214588
0.00021459
0.000214591
0.000214593
0.000214594
0.000214596
0.000214597
0.000214599
0.000214601
0.000214603
0.000214606
0.000214608
0.000214611
0.000214613
0.000214616
0.000214619
0.000214623
0.000214626
0.00021463
0.000214634
0.000214638
0.000214642
0.000214646
0.000214651
0.000214656
0.000214661
0.000214666
0.000214671
0.000214677
0.000214682
0.000214688
0.000214694
0.0002147
0.000214706
0.000214713
0.000214719
0.000214725
0.000214732
0.000214738
0.000214744
0.00021475
0.000214756
0.000214762
0.000214767
0.000214772
0.000214777
0.000214781
0.000214785
0.000214789
0.000214792
0.000214794
0.000214796
0.000214798
0.000214799
0.0002148
0.0002148
0.000214801
0.000214801
0.000214802
0.000214804
0.000214807
0.000214811
0.000214817
0.000214825
0.000214836
0.00021485
0.000214868
0.00021489
0.000214915
0.000214945
0.000214978
0.000215016
0.000215056
0.0002151
0.000215146
0.000215194
0.000215245
0.000215296
0.000215349
0.000215403
0.000215457
0.000215511
0.000215565
0.000215618
0.000215669
0.000215718
0.000215768
0.000215779
0.000215774
0.000215795
0.00021828
0.000218373
0.000218348
0.00021793
0.000217203
0.00021701
0.00021732
0.000217174
0.000217329
0.000217075
0.000216576
0.0001562
0.000204254
0.000211716
0.00021357
0.000214201
0.000214445
0.00021454
0.000214573
0.000214585
0.000214589
0.000214591
0.000214592
0.000214594
0.000214595
0.000214597
0.000214599
0.0002146
0.000214602
0.000214605
0.000214607
0.000214609
0.000214612
0.000214615
0.000214618
0.000214621
0.000214624
0.000214628
0.000214631
0.000214635
0.000214639
0.000214644
0.000214648
0.000214653
0.000214658
0.000214663
0.000214668
0.000214673
0.000214679
0.000214685
0.000214691
0.000214697
0.000214704
0.00021471
0.000214717
0.000214723
0.00021473
0.000214737
0.000214743
0.00021475
0.000214757
0.000214763
0.00021477
0.000214776
0.000214782
0.000214788
0.000214793
0.000214798
0.000214803
0.000214807
0.000214811
0.000214814
0.000214817
0.00021482
0.000214822
0.000214825
0.000214828
0.00021483
0.000214834
0.000214838
0.000214843
0.00021485
0.000214858
0.000214869
0.000214883
0.000214899
0.000214919
0.000214942
0.000214969
0.000214999
0.000215033
0.000215071
0.000215112
0.000215156
0.000215202
0.000215251
0.000215302
0.000215354
0.000215408
0.000215462
0.000215518
0.000215573
0.000215628
0.000215682
0.000215735
0.000215786
0.000215838
0.000215849
0.000215852
0.000215842
0.000218285
0.000218379
0.000218371
0.00021799
0.000217094
0.000216969
0.000217179
0.000217146
0.000217223
0.000217028
0.000216507
0.000156195
0.000204255
0.000211717
0.000213571
0.000214202
0.000214447
0.000214541
0.000214575
0.000214586
0.00021459
0.000214592
0.000214594
0.000214595
0.000214597
0.000214598
0.0002146
0.000214602
0.000214604
0.000214606
0.000214608
0.000214611
0.000214613
0.000214616
0.000214619
0.000214622
0.000214626
0.000214629
0.000214633
0.000214637
0.000214641
0.000214645
0.00021465
0.000214655
0.00021466
0.000214665
0.00021467
0.000214676
0.000214682
0.000214688
0.000214694
0.000214701
0.000214707
0.000214714
0.000214721
0.000214728
0.000214735
0.000214742
0.00021475
0.000214757
0.000214764
0.000214772
0.000214779
0.000214786
0.000214793
0.0002148
0.000214806
0.000214812
0.000214818
0.000214823
0.000214828
0.000214833
0.000214838
0.000214842
0.000214846
0.000214851
0.000214856
0.000214861
0.000214867
0.000214873
0.000214881
0.00021489
0.000214901
0.000214915
0.00021493
0.000214949
0.00021497
0.000214995
0.000215023
0.000215055
0.00021509
0.000215129
0.000215171
0.000215216
0.000215263
0.000215312
0.000215364
0.000215417
0.000215472
0.000215528
0.000215584
0.000215641
0.000215698
0.000215754
0.000215809
0.000215861
0.000215917
0.000215927
0.00021594
0.000215898
0.000218303
0.000218398
0.000218403
0.000218078
0.000217053
0.000216952
0.0002171
0.000217125
0.000217157
0.000216985
0.000216468
0.000156188
0.000204255
0.000211718
0.000213572
0.000214203
0.000214448
0.000214542
0.000214576
0.000214588
0.000214592
0.000214594
0.000214595
0.000214596
0.000214598
0.000214599
0.000214601
0.000214603
0.000214605
0.000214607
0.00021461
0.000214612
0.000214615
0.000214618
0.000214621
0.000214624
0.000214627
0.000214631
0.000214635
0.000214639
0.000214643
0.000214647
0.000214652
0.000214657
0.000214662
0.000214667
0.000214673
0.000214679
0.000214685
0.000214691
0.000214697
0.000214704
0.000214711
0.000214718
0.000214726
0.000214733
0.000214741
0.000214749
0.000214756
0.000214764
0.000214773
0.000214781
0.000214789
0.000214797
0.000214805
0.000214812
0.000214819
0.000214826
0.000214833
0.00021484
0.000214846
0.000214853
0.000214859
0.000214865
0.000214872
0.000214878
0.000214885
0.000214892
0.0002149
0.00021491
0.00021492
0.000214932
0.000214945
0.000214961
0.000214979
0.000215
0.000215023
0.00021505
0.00021508
0.000215114
0.00021515
0.00021519
0.000215233
0.000215279
0.000215327
0.000215378
0.000215431
0.000215486
0.000215542
0.000215599
0.000215657
0.000215716
0.000215775
0.000215833
0.00021589
0.000215945
0.000216005
0.000216015
0.000216039
0.000215964
0.000218333
0.000218434
0.000218447
0.00021818
0.000217059
0.000216957
0.000217068
0.000217114
0.000217124
0.000216955
0.00021645
0.000156181
0.000204256
0.000211719
0.000213573
0.000214205
0.000214449
0.000214543
0.000214577
0.000214589
0.000214593
0.000214595
0.000214596
0.000214598
0.000214599
0.000214601
0.000214603
0.000214605
0.000214607
0.000214609
0.000214611
0.000214614
0.000214616
0.000214619
0.000214622
0.000214626
0.000214629
0.000214633
0.000214636
0.000214641
0.000214645
0.000214649
0.000214654
0.000214659
0.000214664
0.00021467
0.000214676
0.000214682
0.000214688
0.000214694
0.000214701
0.000214708
0.000214715
0.000214723
0.000214731
0.000214739
0.000214747
0.000214755
0.000214764
0.000214772
0.000214781
0.00021479
0.000214799
0.000214808
0.000214817
0.000214825
0.000214834
0.000214842
0.00021485
0.000214858
0.000214866
0.000214874
0.000214882
0.00021489
0.000214898
0.000214906
0.000214915
0.000214925
0.000214936
0.000214947
0.00021496
0.000214974
0.000214991
0.000215009
0.000215029
0.000215052
0.000215078
0.000215107
0.000215139
0.000215174
0.000215213
0.000215254
0.000215299
0.000215346
0.000215396
0.000215449
0.000215503
0.00021556
0.000215618
0.000215677
0.000215738
0.000215799
0.00021586
0.000215921
0.00021598
0.000216038
0.000216104
0.000216112
0.00021615
0.00021604
0.000218375
0.000218484
0.000218504
0.000218282
0.000217093
0.000216979
0.000217072
0.000217119
0.000217117
0.00021694
0.000216448
0.000156174
0.000204256
0.000211719
0.000213574
0.000214206
0.000214451
0.000214545
0.000214579
0.00021459
0.000214595
0.000214596
0.000214598
0.000214599
0.000214601
0.000214602
0.000214604
0.000214606
0.000214608
0.00021461
0.000214613
0.000214615
0.000214618
0.000214621
0.000214624
0.000214627
0.000214631
0.000214634
0.000214638
0.000214643
0.000214647
0.000214652
0.000214656
0.000214662
0.000214667
0.000214673
0.000214678
0.000214685
0.000214691
0.000214698
0.000214705
0.000214712
0.00021472
0.000214728
0.000214736
0.000214745
0.000214753
0.000214762
0.000214772
0.000214781
0.000214791
0.000214801
0.00021481
0.00021482
0.000214829
0.000214839
0.000214848
0.000214858
0.000214867
0.000214876
0.000214886
0.000214895
0.000214905
0.000214915
0.000214925
0.000214936
0.000214947
0.000214959
0.000214972
0.000214986
0.000215002
0.000215019
0.000215037
0.000215058
0.000215081
0.000215107
0.000215135
0.000215166
0.000215201
0.000215238
0.000215279
0.000215322
0.000215369
0.000215418
0.00021547
0.000215525
0.000215581
0.00021564
0.0002157
0.000215762
0.000215825
0.000215889
0.000215953
0.000216017
0.00021608
0.000216141
0.000216213
0.00021622
0.000216275
0.000216129
0.000218428
0.000218547
0.000218572
0.000218402
0.000217167
0.000217033
0.000217107
0.000217144
0.00021713
0.000216941
0.000216457
0.000156166
0.000204256
0.00021172
0.000213575
0.000214207
0.000214452
0.000214547
0.00021458
0.000214592
0.000214596
0.000214598
0.000214599
0.000214601
0.000214602
0.000214604
0.000214606
0.000214608
0.00021461
0.000214612
0.000214614
0.000214617
0.00021462
0.000214623
0.000214626
0.000214629
0.000214633
0.000214636
0.00021464
0.000214645
0.000214649
0.000214654
0.000214659
0.000214664
0.00021467
0.000214675
0.000214682
0.000214688
0.000214695
0.000214702
0.000214709
0.000214717
0.000214725
0.000214733
0.000214742
0.000214751
0.00021476
0.00021477
0.00021478
0.00021479
0.000214801
0.000214811
0.000214822
0.000214832
0.000214843
0.000214853
0.000214864
0.000214874
0.000214885
0.000214896
0.000214907
0.000214918
0.000214929
0.000214941
0.000214954
0.000214966
0.00021498
0.000214994
0.00021501
0.000215027
0.000215045
0.000215064
0.000215086
0.000215109
0.000215135
0.000215163
0.000215194
0.000215228
0.000215265
0.000215305
0.000215348
0.000215394
0.000215443
0.000215495
0.000215549
0.000215606
0.000215666
0.000215727
0.00021579
0.000215855
0.000215921
0.000215988
0.000216056
0.000216124
0.000216191
0.000216255
0.000216335
0.000216339
0.000216415
0.00021623
0.000218493
0.000218623
0.000218651
0.000218539
0.00021729
0.000217119
0.000217169
0.000217189
0.00021716
0.000216956
0.000216476
0.000156157
0.000204257
0.000211721
0.000213576
0.000214209
0.000214454
0.000214548
0.000214582
0.000214594
0.000214598
0.0002146
0.000214601
0.000214603
0.000214604
0.000214606
0.000214607
0.000214609
0.000214612
0.000214614
0.000214616
0.000214619
0.000214622
0.000214625
0.000214628
0.000214631
0.000214635
0.000214639
0.000214643
0.000214647
0.000214651
0.000214656
0.000214661
0.000214667
0.000214672
0.000214678
0.000214685
0.000214691
0.000214698
0.000214706
0.000214713
0.000214721
0.00021473
0.000214739
0.000214748
0.000214758
0.000214768
0.000214778
0.000214789
0.0002148
0.000214811
0.000214822
0.000214834
0.000214845
0.000214856
0.000214868
0.00021488
0.000214892
0.000214904
0.000214916
0.000214929
0.000214942
0.000214955
0.000214969
0.000214983
0.000214998
0.000215014
0.000215031
0.000215049
0.000215068
0.000215089
0.000215112
0.000215136
0.000215162
0.000215191
0.000215222
0.000215256
0.000215293
0.000215333
0.000215376
0.000215422
0.000215471
0.000215522
0.000215577
0.000215635
0.000215695
0.000215757
0.000215821
0.000215888
0.000215956
0.000216026
0.000216097
0.000216168
0.000216241
0.000216312
0.000216381
0.000216469
0.000216472
0.00021657
0.000216347
0.000218568
0.000218713
0.000218745
0.000218682
0.000217431
0.000217221
0.000217249
0.000217249
0.000217202
0.000216979
0.000216503
0.000156148
0.000204257
0.000211722
0.000213578
0.00021421
0.000214455
0.00021455
0.000214584
0.000214595
0.000214599
0.000214601
0.000214603
0.000214604
0.000214606
0.000214607
0.000214609
0.000214611
0.000214613
0.000214616
0.000214618
0.000214621
0.000214623
0.000214627
0.00021463
0.000214633
0.000214637
0.000214641
0.000214645
0.000214649
0.000214654
0.000214659
0.000214664
0.00021467
0.000214675
0.000214682
0.000214688
0.000214695
0.000214702
0.00021471
0.000214718
0.000214726
0.000214735
0.000214745
0.000214754
0.000214765
0.000214775
0.000214787
0.000214798
0.00021481
0.000214822
0.000214834
0.000214846
0.000214858
0.000214871
0.000214883
0.000214896
0.000214909
0.000214923
0.000214937
0.000214951
0.000214966
0.000214981
0.000214997
0.000215014
0.000215031
0.000215049
0.000215069
0.000215089
0.000215112
0.000215135
0.000215161
0.000215188
0.000215218
0.00021525
0.000215284
0.000215321
0.000215361
0.000215404
0.000215451
0.0002155
0.000215552
0.000215607
0.000215665
0.000215726
0.00021579
0.000215856
0.000215924
0.000215994
0.000216066
0.00021614
0.000216215
0.000216292
0.000216369
0.000216446
0.00021652
0.000216619
0.00021662
0.000216744
0.000216481
0.000218654
0.000218817
0.000218852
0.000218839
0.000217597
0.000217342
0.000217345
0.000217322
0.000217253
0.000217009
0.000216534
0.000156139
0.000204258
0.000211723
0.000213579
0.000214212
0.000214457
0.000214551
0.000214585
0.000214597
0.000214601
0.000214603
0.000214605
0.000214606
0.000214608
0.000214609
0.000214611
0.000214613
0.000214615
0.000214617
0.00021462
0.000214623
0.000214625
0.000214629
0.000214632
0.000214635
0.000214639
0.000214643
0.000214647
0.000214652
0.000214656
0.000214661
0.000214667
0.000214673
0.000214679
0.000214685
0.000214692
0.000214699
0.000214706
0.000214714
0.000214723
0.000214732
0.000214741
0.000214751
0.000214761
0.000214772
0.000214784
0.000214796
0.000214808
0.00021482
0.000214833
0.000214845
0.000214858
0.000214872
0.000214885
0.000214899
0.000214913
0.000214928
0.000214943
0.000214958
0.000214974
0.000214991
0.000215008
0.000215026
0.000215045
0.000215065
0.000215086
0.000215108
0.000215131
0.000215156
0.000215183
0.000215212
0.000215242
0.000215275
0.000215311
0.000215349
0.00021539
0.000215433
0.00021548
0.00021553
0.000215583
0.000215639
0.000215698
0.00021576
0.000215825
0.000215892
0.000215962
0.000216035
0.000216109
0.000216186
0.000216265
0.000216345
0.000216427
0.00021651
0.000216594
0.000216673
0.000216784
0.000216783
0.000216938
0.000216634
0.000218751
0.000218934
0.000218972
0.000219013
0.000217793
0.000217485
0.000217457
0.000217407
0.000217311
0.000217041
0.000216568
0.000156129
0.000204258
0.000211724
0.00021358
0.000214213
0.000214459
0.000214553
0.000214587
0.000214599
0.000214603
0.000214605
0.000214606
0.000214608
0.000214609
0.000214611
0.000214613
0.000214615
0.000214617
0.000214619
0.000214622
0.000214625
0.000214627
0.000214631
0.000214634
0.000214637
0.000214641
0.000214645
0.00021465
0.000214654
0.000214659
0.000214664
0.00021467
0.000214676
0.000214682
0.000214688
0.000214695
0.000214703
0.000214711
0.000214719
0.000214728
0.000214737
0.000214747
0.000214757
0.000214768
0.00021478
0.000214792
0.000214805
0.000214818
0.000214831
0.000214844
0.000214857
0.000214871
0.000214886
0.0002149
0.000214915
0.000214931
0.000214947
0.000214964
0.000214981
0.000214998
0.000215017
0.000215036
0.000215056
0.000215078
0.0002151
0.000215123
0.000215148
0.000215175
0.000215203
0.000215233
0.000215265
0.000215299
0.000215336
0.000215375
0.000215417
0.000215462
0.000215509
0.00021556
0.000215614
0.000215672
0.000215732
0.000215796
0.000215862
0.000215931
0.000216003
0.000216078
0.000216155
0.000216235
0.000216317
0.000216401
0.000216487
0.000216575
0.000216665
0.000216755
0.000216842
0.000216967
0.000216964
0.000217153
0.000216808
0.000218859
0.000219063
0.000219104
0.000219204
0.000218021
0.00021765
0.000217587
0.000217503
0.000217374
0.000217072
0.000216602
0.000156118
0.000204258
0.000211725
0.000213581
0.000214215
0.00021446
0.000214555
0.000214589
0.000214601
0.000214605
0.000214607
0.000214608
0.00021461
0.000214611
0.000214613
0.000214615
0.000214617
0.000214619
0.000214621
0.000214624
0.000214627
0.00021463
0.000214633
0.000214636
0.00021464
0.000214644
0.000214648
0.000214652