/*--------------------------------*- C++ -*----------------------------------*\
| =========                 |                                                 |
| \\      /  F ield         | OpenFOAM: The Open Source CFD Toolbox           |
|  \\    /   O peration     | Version:  v2106                                 |
|   \\  /    A nd           | Website:  www.openfoam.com                      |
|    \\/     M anipulation  |                                                 |
\*---------------------------------------------------------------------------*/
FoamFile
{
    version     2.0;
    format      ascii;
    arch        "LSB;label=32;scalar=64";
    class       volScalarField;
    location    "0.5";
    object      nut;
}
// * * * * * * * * * * * * * * * * * * * * * * * * * * * * * * * * * * * * * //

dimensions      [0 2 -1 0 0 0 0];

internalField   nonuniform List<scalar> 
29678
(
2.06746e-05
0.000179521
0.000565811
0.000998809
0.00127977
0.0014067
0.00145108
0.00146382
0.00146695
0.00146762
0.00146774
0.00146777
0.00146777
0.00146778
0.00146778
0.00146778
0.00146779
0.00146779
0.00146779
0.0014678
0.0014678
0.00146781
0.00146781
0.00146781
0.00146782
0.00146783
0.00146783
0.00146784
0.00146784
0.00146785
0.00146786
0.00146786
0.00146787
0.00146788
0.00146788
0.00146789
0.0014679
0.00146791
0.00146792
0.00146792
0.00146793
0.00146794
0.00146795
0.00146796
0.00146796
0.00146797
0.00146798
0.00146799
0.00146799
0.001468
0.001468
0.001468
0.00146801
0.00146801
0.00146801
0.00146801
0.00146801
0.00146801
0.001468
0.001468
0.001468
0.00146799
0.00146798
0.00146798
0.00146796
0.00146794
0.00146792
0.0014679
0.00146788
0.00146785
0.00146783
0.00146782
0.0014678
0.00146779
0.00146779
0.00146779
0.00146779
0.00146781
0.00146784
0.00146787
0.00146792
0.00146798
0.00146805
0.00146814
0.00146824
0.00146836
0.00146848
0.00146862
0.00146875
0.00146858
0.00134544
0.0012382
0.00114711
0.00106869
0.000998579
0.000940508
0.000935758
0.0011041
0.00120383
8.18287e-06
7.50128e-06
6.33352e-06
1.13979e-05
6.58273e-05
2.00011e-05
0.000164472
9.66527e-05
0.000147635
0.000115303
0.000134728
2.0674e-05
0.000179512
0.000565795
0.000998801
0.00127977
0.0014067
0.00145108
0.00146383
0.00146695
0.00146762
0.00146775
0.00146777
0.00146778
0.00146778
0.00146779
0.00146779
0.0014678
0.0014678
0.0014678
0.00146781
0.00146782
0.00146782
0.00146783
0.00146783
0.00146784
0.00146785
0.00146786
0.00146786
0.00146787
0.00146788
0.00146789
0.0014679
0.00146791
0.00146792
0.00146793
0.00146794
0.00146795
0.00146796
0.00146797
0.00146798
0.00146799
0.001468
0.00146801
0.00146802
0.00146803
0.00146804
0.00146805
0.00146806
0.00146807
0.00146808
0.00146808
0.00146809
0.00146809
0.0014681
0.0014681
0.0014681
0.00146809
0.00146809
0.00146809
0.00146808
0.00146807
0.00146807
0.00146806
0.00146804
0.00146802
0.001468
0.00146797
0.00146794
0.00146791
0.00146789
0.00146786
0.00146784
0.00146782
0.00146781
0.0014678
0.0014678
0.00146781
0.00146783
0.00146786
0.00146791
0.00146797
0.00146805
0.00146814
0.00146826
0.00146839
0.00146854
0.00146869
0.00131575
0.00118432
0.00107524
0.00098316
0.000904353
0.000836741
0.000778215
0.00072601
0.000680409
0.000655935
0.000734451
0.000647001
1.32242e-05
5.39181e-06
9.76579e-06
1.06291e-05
2.21048e-05
2.52195e-05
6.97713e-05
8.56404e-05
9.84276e-05
0.000101452
0.000105088
2.0674e-05
0.000179516
0.000565803
0.000998811
0.00127977
0.00140671
0.00145108
0.00146383
0.00146695
0.00146762
0.00146775
0.00146778
0.00146778
0.00146779
0.00146779
0.0014678
0.0014678
0.00146781
0.00146781
0.00146782
0.00146783
0.00146783
0.00146784
0.00146785
0.00146786
0.00146786
0.00146787
0.00146788
0.00146789
0.0014679
0.00146791
0.00146792
0.00146794
0.00146795
0.00146796
0.00146797
0.00146798
0.001468
0.00146801
0.00146802
0.00146804
0.00146805
0.00146806
0.00146807
0.00146809
0.0014681
0.00146811
0.00146812
0.00146813
0.00146814
0.00146815
0.00146815
0.00146816
0.00146816
0.00146816
0.00146816
0.00146816
0.00146816
0.00146815
0.00146814
0.00146813
0.00146812
0.00146811
0.00146809
0.00146807
0.00146804
0.00146801
0.00146797
0.00146794
0.00146791
0.00146788
0.00146786
0.00146784
0.00146783
0.00146782
0.00146782
0.00146783
0.00146786
0.0014679
0.00146796
0.00146803
0.00146813
0.00146824
0.00146838
0.00146854
0.00145639
0.00129307
0.00115637
0.00104417
0.000950086
0.000870817
0.000803269
0.000745505
0.000695819
0.000652166
0.00061483
0.000595693
0.000678189
0.000673259
1.85643e-05
1.28484e-05
1.0097e-05
7.16336e-05
1.98028e-05
6.13756e-05
6.17871e-05
9.93915e-05
9.624e-05
0.000109026
0.000111683
2.0674e-05
0.000179524
0.000565825
0.000998834
0.00127979
0.00140671
0.00145109
0.00146383
0.00146695
0.00146762
0.00146775
0.00146778
0.00146779
0.00146779
0.0014678
0.0014678
0.00146781
0.00146781
0.00146782
0.00146782
0.00146783
0.00146784
0.00146785
0.00146785
0.00146786
0.00146787
0.00146788
0.00146789
0.0014679
0.00146791
0.00146793
0.00146794
0.00146795
0.00146796
0.00146797
0.00146799
0.001468
0.00146802
0.00146803
0.00146804
0.00146806
0.00146807
0.00146809
0.0014681
0.00146811
0.00146813
0.00146814
0.00146815
0.00146816
0.00146817
0.00146818
0.00146819
0.00146819
0.00146819
0.0014682
0.0014682
0.0014682
0.00146819
0.00146819
0.00146818
0.00146817
0.00146816
0.00146814
0.00146812
0.0014681
0.00146807
0.00146803
0.001468
0.00146797
0.00146794
0.00146791
0.00146789
0.00146787
0.00146786
0.00146785
0.00146786
0.00146787
0.0014679
0.00146795
0.00146801
0.0014681
0.0014682
0.00146833
0.00146848
0.00146866
0.00135438
0.00120991
0.0010912
0.000992197
0.000908724
0.000837655
0.000776448
0.000723511
0.000677489
0.000636707
0.000600458
0.000581006
0.000648778
0.000673662
2.68154e-05
2.1302e-05
2.78932e-05
5.02605e-05
2.84534e-05
9.01151e-05
5.59572e-05
0.000102052
8.57982e-05
0.000104651
9.98218e-05
2.06739e-05
0.000179533
0.00056585
0.000998864
0.00127981
0.00140672
0.00145109
0.00146383
0.00146695
0.00146762
0.00146776
0.00146778
0.00146779
0.00146779
0.0014678
0.0014678
0.00146781
0.00146781
0.00146782
0.00146783
0.00146783
0.00146784
0.00146785
0.00146786
0.00146787
0.00146788
0.00146789
0.0014679
0.00146791
0.00146792
0.00146793
0.00146794
0.00146796
0.00146797
0.00146798
0.001468
0.00146801
0.00146802
0.00146804
0.00146805
0.00146807
0.00146808
0.0014681
0.00146811
0.00146813
0.00146814
0.00146815
0.00146817
0.00146818
0.00146819
0.0014682
0.0014682
0.00146821
0.00146821
0.00146822
0.00146822
0.00146822
0.00146821
0.00146821
0.0014682
0.0014682
0.00146818
0.00146817
0.00146815
0.00146812
0.00146809
0.00146806
0.00146803
0.001468
0.00146797
0.00146795
0.00146792
0.00146791
0.0014679
0.00146789
0.0014679
0.00146792
0.00146796
0.00146801
0.00146808
0.00146817
0.00146828
0.00146842
0.00146858
0.0014335
0.00128307
0.00115684
0.00105076
0.000960164
0.000882814
0.000816361
0.000758794
0.000708688
0.000664828
0.000625777
0.000589857
0.000571874
0.000628741
0.000691064
3.39149e-05
3.62114e-05
5.16856e-05
5.04588e-05
3.6995e-05
0.000111773
6.08705e-05
0.000113935
8.80868e-05
0.00011368
0.000106388
2.06739e-05
0.000179541
0.000565876
0.000998894
0.00127983
0.00140673
0.0014511
0.00146384
0.00146696
0.00146763
0.00146776
0.00146778
0.00146779
0.00146779
0.0014678
0.0014678
0.00146781
0.00146782
0.00146782
0.00146783
0.00146784
0.00146784
0.00146785
0.00146786
0.00146787
0.00146788
0.00146789
0.0014679
0.00146791
0.00146792
0.00146793
0.00146795
0.00146796
0.00146797
0.00146799
0.001468
0.00146801
0.00146803
0.00146804
0.00146806
0.00146807
0.00146809
0.0014681
0.00146812
0.00146813
0.00146815
0.00146816
0.00146817
0.00146819
0.0014682
0.00146821
0.00146822
0.00146822
0.00146823
0.00146823
0.00146823
0.00146824
0.00146823
0.00146823
0.00146823
0.00146822
0.00146821
0.00146819
0.00146817
0.00146815
0.00146812
0.00146809
0.00146806
0.00146804
0.00146801
0.00146799
0.00146797
0.00146795
0.00146795
0.00146795
0.00146796
0.00146799
0.00146803
0.00146808
0.00146816
0.00146826
0.00146838
0.00146852
0.00146868
0.00134867
0.00121786
0.00110654
0.0010102
0.00092694
0.000855069
0.000792761
0.000738456
0.000690951
0.000649195
0.000611995
0.000576816
0.000560774
0.000606325
0.000691923
4.10904e-05
4.86547e-05
8.1289e-05
5.92079e-05
5.06118e-05
0.000124699
6.93071e-05
0.000120009
9.17234e-05
0.000115781
0.000105277
2.06737e-05
0.00017955
0.000565902
0.000998925
0.00127985
0.00140674
0.0014511
0.00146384
0.00146696
0.00146763
0.00146776
0.00146778
0.00146779
0.0014678
0.0014678
0.00146781
0.00146781
0.00146782
0.00146782
0.00146783
0.00146784
0.00146785
0.00146785
0.00146786
0.00146787
0.00146788
0.00146789
0.0014679
0.00146791
0.00146793
0.00146794
0.00146795
0.00146796
0.00146798
0.00146799
0.001468
0.00146802
0.00146803
0.00146805
0.00146806
0.00146808
0.0014681
0.00146811
0.00146813
0.00146814
0.00146816
0.00146817
0.00146818
0.0014682
0.00146821
0.00146822
0.00146823
0.00146824
0.00146824
0.00146825
0.00146825
0.00146825
0.00146825
0.00146825
0.00146825
0.00146824
0.00146824
0.00146822
0.0014682
0.00146818
0.00146815
0.00146813
0.0014681
0.00146808
0.00146806
0.00146804
0.00146802
0.00146801
0.00146801
0.00146802
0.00146804
0.00146807
0.00146811
0.00146817
0.00146826
0.00146836
0.00146849
0.00146863
0.00139346
0.00126357
0.00115094
0.00105266
0.000965976
0.000890173
0.000823984
0.000766065
0.000715228
0.000670501
0.000631019
0.000595841
0.000561638
0.000547582
0.000581976
0.00068377
4.80435e-05
6.06018e-05
9.58612e-05
7.24978e-05
6.36155e-05
0.000133061
7.88496e-05
0.000128492
9.90863e-05
0.000124414
0.000112271
2.06736e-05
0.000179558
0.000565928
0.000998956
0.00127987
0.00140675
0.00145111
0.00146384
0.00146696
0.00146763
0.00146776
0.00146779
0.00146779
0.0014678
0.0014678
0.00146781
0.00146781
0.00146782
0.00146783
0.00146783
0.00146784
0.00146785
0.00146786
0.00146787
0.00146787
0.00146788
0.00146789
0.00146791
0.00146792
0.00146793
0.00146794
0.00146795
0.00146797
0.00146798
0.00146799
0.00146801
0.00146802
0.00146804
0.00146805
0.00146807
0.00146809
0.0014681
0.00146812
0.00146813
0.00146815
0.00146816
0.00146818
0.00146819
0.00146821
0.00146822
0.00146823
0.00146824
0.00146825
0.00146826
0.00146827
0.00146827
0.00146828
0.00146828
0.00146828
0.00146828
0.00146827
0.00146827
0.00146825
0.00146824
0.00146822
0.0014682
0.00146817
0.00146815
0.00146813
0.00146812
0.0014681
0.00146809
0.00146809
0.00146809
0.0014681
0.00146813
0.00146816
0.00146821
0.00146828
0.00146837
0.00146849
0.00146862
0.0014111
0.00128926
0.00117915
0.0010828
0.000996397
0.000919298
0.00085097
0.00079057
0.000737181
0.000689938
0.000648093
0.000610966
0.000577886
0.000544726
0.00053267
0.000556048
0.000669485
5.48396e-05
7.22981e-05
0.000102107
8.26136e-05
7.81358e-05
0.000148864
9.08499e-05
0.000139407
0.000108154
0.000132981
0.000118848
2.06734e-05
0.000179567
0.000565954
0.000998988
0.00127989
0.00140676
0.00145111
0.00146384
0.00146696
0.00146763
0.00146776
0.00146779
0.0014678
0.0014678
0.00146781
0.00146781
0.00146782
0.00146782
0.00146783
0.00146784
0.00146784
0.00146785
0.00146786
0.00146787
0.00146788
0.00146789
0.0014679
0.00146791
0.00146792
0.00146793
0.00146794
0.00146796
0.00146797
0.00146798
0.001468
0.00146801
0.00146803
0.00146804
0.00146806
0.00146807
0.00146809
0.00146811
0.00146812
0.00146814
0.00146816
0.00146817
0.00146819
0.0014682
0.00146822
0.00146823
0.00146825
0.00146826
0.00146827
0.00146828
0.00146829
0.0014683
0.0014683
0.00146831
0.00146831
0.00146831
0.00146831
0.0014683
0.00146829
0.00146828
0.00146826
0.00146825
0.00146823
0.00146821
0.0014682
0.00146818
0.00146818
0.00146817
0.00146817
0.00146818
0.0014682
0.00146823
0.00146828
0.00146834
0.00146841
0.00146851
0.00146863
0.00140013
0.00129204
0.00118931
0.00109789
0.00101517
0.00093986
0.000871752
0.000810559
0.000755798
0.000706885
0.000663222
0.000624256
0.000589487
0.000558508
0.000526385
0.00051635
0.000529131
0.000651048
6.14281e-05
8.20603e-05
0.000106764
8.74975e-05
9.56393e-05
0.000167
0.000103195
0.000152339
0.000118412
0.00014384
0.000127606
2.06731e-05
0.000179576
0.000565979
0.000999019
0.00127992
0.00140678
0.00145112
0.00146385
0.00146697
0.00146764
0.00146777
0.00146779
0.0014678
0.0014678
0.00146781
0.00146781
0.00146782
0.00146783
0.00146783
0.00146784
0.00146785
0.00146785
0.00146786
0.00146787
0.00146788
0.00146789
0.0014679
0.00146791
0.00146792
0.00146793
0.00146795
0.00146796
0.00146797
0.00146799
0.001468
0.00146802
0.00146803
0.00146805
0.00146806
0.00146808
0.0014681
0.00146812
0.00146813
0.00146815
0.00146817
0.00146818
0.0014682
0.00146822
0.00146823
0.00146825
0.00146826
0.00146828
0.00146829
0.0014683
0.00146831
0.00146832
0.00146833
0.00146834
0.00146834
0.00146835
0.00146835
0.00146834
0.00146834
0.00146833
0.00146831
0.0014683
0.00146829
0.00146828
0.00146827
0.00146826
0.00146826
0.00146826
0.00146827
0.00146829
0.00146832
0.00146835
0.00146841
0.00146848
0.00146856
0.00144759
0.0013635
0.00127218
0.00118166
0.00109805
0.00102123
0.000950176
0.000884618
0.000824564
0.000769926
0.00072046
0.00067582
0.000635613
0.000599445
0.000566973
0.000538048
0.000506915
0.000498888
0.00050176
0.000629369
6.77311e-05
9.03078e-05
0.000107179
8.95503e-05
0.000116836
0.00017718
0.000117469
0.000168214
0.000129012
0.000157227
0.00013703
2.06728e-05
0.000179584
0.000566005
0.00099905
0.00127994
0.00140679
0.00145112
0.00146385
0.00146697
0.00146764
0.00146777
0.00146779
0.0014678
0.00146781
0.00146781
0.00146782
0.00146782
0.00146783
0.00146784
0.00146784
0.00146785
0.00146786
0.00146787
0.00146787
0.00146788
0.00146789
0.0014679
0.00146792
0.00146793
0.00146794
0.00146795
0.00146796
0.00146798
0.00146799
0.00146801
0.00146802
0.00146804
0.00146805
0.00146807
0.00146809
0.00146811
0.00146812
0.00146814
0.00146816
0.00146818
0.0014682
0.00146821
0.00146823
0.00146825
0.00146827
0.00146828
0.0014683
0.00146831
0.00146833
0.00146834
0.00146835
0.00146836
0.00146837
0.00146838
0.00146839
0.00146839
0.00146839
0.00146839
0.00146838
0.00146838
0.00146837
0.00146836
0.00146836
0.00146836
0.00146836
0.00146836
0.00146837
0.00146839
0.00146841
0.00146845
0.0014685
0.00146856
0.00143248
0.00137514
0.00130835
0.00123459
0.00115839
0.00108487
0.00101546
0.000950144
0.000888811
0.000831576
0.000778569
0.000729806
0.000685188
0.000644527
0.000607578
0.000574069
0.000543789
0.000516833
0.000486623
0.000480564
0.000474433
0.000605387
7.36868e-05
9.72126e-05
0.000104496
9.08974e-05
0.00014012
0.000179558
0.000136116
0.000178948
0.000142783
0.000170838
0.000147353
2.06725e-05
0.000179593
0.000566031
0.000999081
0.00127996
0.0014068
0.00145113
0.00146386
0.00146697
0.00146764
0.00146777
0.0014678
0.00146781
0.00146781
0.00146782
0.00146782
0.00146783
0.00146783
0.00146784
0.00146785
0.00146785
0.00146786
0.00146787
0.00146788
0.00146789
0.0014679
0.00146791
0.00146792
0.00146793
0.00146794
0.00146796
0.00146797
0.00146798
0.001468
0.00146801
0.00146803
0.00146805
0.00146806
0.00146808
0.0014681
0.00146811
0.00146813
0.00146815
0.00146817
0.00146819
0.00146821
0.00146823
0.00146825
0.00146827
0.00146829
0.0014683
0.00146832
0.00146834
0.00146835
0.00146837
0.00146838
0.0014684
0.00146599
0.00145725
0.00145059
0.00144598
0.00144333
0.00144254
0.00144343
0.00144574
0.00144913
0.00145311
0.00145709
0.00146028
0.00146177
0.0014605
0.00145537
0.00144532
0.0014294
0.00140694
0.00137762
0.00134072
0.00129623
0.00124425
0.00118565
0.00112352
0.00106087
0.000999654
0.000940812
0.00088464
0.000831358
0.000781188
0.000734285
0.000690716
0.000650466
0.000613448
0.000579517
0.000548489
0.000520262
0.000495172
0.000465805
0.00046165
0.000447545
0.000579756
7.92476e-05
0.000103
0.000100489
9.18863e-05
0.000159819
0.000187359
0.000157474
0.000184414
0.000160203
0.000183218
0.000221554
2.06721e-05
0.000179601
0.000566056
0.000999112
0.00127998
0.00140681
0.00145114
0.00146386
0.00146698
0.00146765
0.00146778
0.0014678
0.00146781
0.00146781
0.00146782
0.00146782
0.00146783
0.00146784
0.00146784
0.00146785
0.00146786
0.00146787
0.00146787
0.00146788
0.00146789
0.0014679
0.00146791
0.00146792
0.00146794
0.00146795
0.00146796
0.00146797
0.00146799
0.001468
0.00146802
0.00146804
0.00146805
0.00146807
0.00146809
0.00146811
0.00146812
0.00146814
0.00146816
0.00146818
0.0014682
0.00146822
0.00146824
0.00146826
0.00146829
0.00146831
0.00146833
0.00146835
0.00146837
0.00146838
0.00146799
0.00145073
0.00143534
0.00142182
0.00141015
0.00140026
0.00139207
0.00138546
0.00138029
0.00137637
0.00137342
0.00137111
0.001369
0.00136658
0.00136321
0.00135819
0.00135077
0.00134021
0.00132582
0.00130696
0.00128316
0.00125407
0.00121898
0.0011778
0.00113148
0.00108125
0.00102871
0.00097576
0.00092366
0.000873064
0.00082435
0.000777803
0.000733639
0.000692008
0.000653003
0.000616654
0.00058293
0.000551756
0.000523012
0.000496687
0.00047335
0.00044474
0.000442397
0.000421389
0.000552972
8.43785e-05
0.000107915
9.61191e-05
9.18924e-05
0.000175968
0.000199529
0.000177597
0.000193552
0.000177802
0.000195284
0.000251039
2.06718e-05
0.00017961
0.000566082
0.000999142
0.00128
0.00140682
0.00145114
0.00146386
0.00146698
0.00146765
0.00146778
0.00146781
0.00146781
0.00146782
0.00146782
0.00146783
0.00146783
0.00146784
0.00146785
0.00146785
0.00146786
0.00146787
0.00146788
0.00146789
0.0014679
0.00146791
0.00146792
0.00146793
0.00146794
0.00146795
0.00146797
0.00146798
0.001468
0.00146801
0.00146803
0.00146804
0.00146806
0.00146808
0.0014681
0.00146811
0.00146813
0.00146815
0.00146818
0.0014682
0.00146822
0.00146824
0.00146826
0.00146828
0.00146831
0.00146833
0.00146835
0.00146837
0.0014684
0.00145102
0.00142993
0.00141055
0.00139291
0.00137691
0.00136251
0.00134961
0.00133811
0.0013279
0.00131879
0.00131061
0.00130309
0.00129594
0.00128879
0.00128122
0.00127277
0.00126293
0.00125116
0.00123695
0.00121981
0.00119924
0.00117485
0.00114635
0.00111344
0.00107591
0.00103473
0.000990987
0.000945751
0.000900253
0.000855297
0.00081139
0.000768878
0.000728008
0.000688968
0.000651897
0.000616892
0.000584002
0.000553234
0.000524562
0.000497908
0.000473328
0.000451624
0.000423683
0.000423032
0.000396172
0.000525437
8.9055e-05
0.00011214
9.19239e-05
9.04599e-05
0.000188505
0.00021278
0.000196801
0.000204286
0.000196072
0.00020983
0.000281122
2.06713e-05
0.000179618
0.000566107
0.000999173
0.00128002
0.00140684
0.00145115
0.00146387
0.00146698
0.00146765
0.00146778
0.00146781
0.00146782
0.00146782
0.00146783
0.00146783
0.00146784
0.00146784
0.00146785
0.00146786
0.00146787
0.00146787
0.00146788
0.00146789
0.0014679
0.00146791
0.00146792
0.00146793
0.00146795
0.00146796
0.00146797
0.00146799
0.001468
0.00146802
0.00146803
0.00146805
0.00146807
0.00146809
0.00146811
0.00146813
0.00146815
0.00146817
0.00146819
0.00146821
0.00146823
0.00146826
0.00146828
0.0014683
0.00146833
0.00146835
0.00146838
0.00146457
0.00143848
0.00141397
0.00139111
0.00136985
0.00135012
0.00133186
0.00131499
0.00129939
0.00128497
0.0012716
0.00125911
0.00124732
0.00123601
0.00122493
0.00121378
0.00120225
0.00118999
0.00117664
0.00116181
0.00114511
0.00112616
0.00110458
0.00108
0.00105223
0.00102127
0.000986875
0.000950045
0.00091161
0.000872224
0.000832655
0.000793503
0.00075514
0.000717831
0.000681775
0.000647128
0.000614011
0.000582512
0.000552688
0.00052457
0.000498163
0.000473411
0.000450419
0.000430225
0.000402858
0.000403754
0.000372035
0.000497491
9.32596e-05
0.000115691
8.80704e-05
8.75357e-05
0.000198008
0.00022499
0.000214755
0.000216515
0.000213823
0.000227197
0.000309079
2.06708e-05
0.000179627
0.000566132
0.000999203
0.00128005
0.00140685
0.00145116
0.00146387
0.00146699
0.00146766
0.00146779
0.00146781
0.00146782
0.00146783
0.00146783
0.00146784
0.00146784
0.00146785
0.00146786
0.00146786
0.00146787
0.00146788
0.00146789
0.0014679
0.00146791
0.00146792
0.00146793
0.00146794
0.00146795
0.00146797
0.00146798
0.00146799
0.00146801
0.00146802
0.00146804
0.00146806
0.00146808
0.0014681
0.00146812
0.00146814
0.00146816
0.00146818
0.0014682
0.00146823
0.00146825
0.00146828
0.0014683
0.00146833
0.00146835
0.00146838
0.00145911
0.00143003
0.00140248
0.0013765
0.00135206
0.00132907
0.00130745
0.00128714
0.00126804
0.00125006
0.00123309
0.001217
0.00120165
0.00118688
0.00117249
0.00115829
0.00114403
0.00112948
0.00111437
0.00109842
0.00108133
0.00106282
0.00104257
0.00102031
0.00099579
0.000968916
0.000939824
0.000908365
0.000875246
0.000841135
0.000806504
0.000771797
0.000737453
0.000703729
0.00067082
0.000638877
0.000608021
0.000578348
0.000549936
0.000522844
0.000497113
0.000472755
0.000449724
0.000428159
0.000409347
0.000382457
0.000384732
0.000349073
0.000469416
9.69804e-05
0.000118501
8.45424e-05
8.45713e-05
0.000206111
0.000237068
0.000230956
0.000230768
0.000230978
0.000246792
0.000337432
2.06703e-05
0.000179635
0.000566157
0.000999234
0.00128007
0.00140686
0.00145116
0.00146388
0.00146699
0.00146766
0.00146779
0.00146782
0.00146783
0.00146783
0.00146784
0.00146784
0.00146785
0.00146785
0.00146786
0.00146787
0.00146788
0.00146788
0.00146789
0.0014679
0.00146791
0.00146792
0.00146793
0.00146795
0.00146796
0.00146797
0.00146799
0.001468
0.00146802
0.00146803
0.00146805
0.00146807
0.00146809
0.00146811
0.00146813
0.00146815
0.00146817
0.00146819
0.00146822
0.00146824
0.00146827
0.00146829
0.00146832
0.00146835
0.00146838
0.00145715
0.00142537
0.00139506
0.00136629
0.00133899
0.00131309
0.0012885
0.00126517
0.00124301
0.00122195
0.00120187
0.0011827
0.0011643
0.00114655
0.00112931
0.00111242
0.00109572
0.00107902
0.00106213
0.00104485
0.00102694
0.0010082
0.000988399
0.000967314
0.000944757
0.000920577
0.000894736
0.000867417
0.000838592
0.000808579
0.000778085
0.000747415
0.000716746
0.000686427
0.000656626
0.000627473
0.000599075
0.000571517
0.000544879
0.00051922
0.000494586
0.000471007
0.000448495
0.000427008
0.00040671
0.000389153
0.000362643
0.000366108
0.000327351
0.000441466
0.000100219
0.000121296
8.09632e-05
8.03442e-05
0.000212824
0.000247407
0.00024493
0.000245925
0.000248653
0.000268566
0.000368901
2.06698e-05
0.000179643
0.000566181
0.000999263
0.00128009
0.00140687
0.00145117
0.00146389
0.001467
0.00146767
0.0014678
0.00146782
0.00146783
0.00146784
0.00146784
0.00146785
0.00146785
0.00146786
0.00146787
0.00146787
0.00146788
0.00146789
0.0014679
0.00146791
0.00146792
0.00146793
0.00146794
0.00146795
0.00146796
0.00146798
0.00146799
0.00146801
0.00146802
0.00146804
0.00146806
0.00146808
0.0014681
0.00146812
0.00146814
0.00146816
0.00146818
0.00146821
0.00146823
0.00146826
0.00146829
0.00146832
0.00146835
0.00146838
0.00145845
0.00142421
0.00139137
0.00136006
0.00133017
0.00130164
0.0012744
0.00124838
0.0012235
0.00119971
0.00117691
0.00115502
0.00113394
0.00111358
0.00109383
0.00107456
0.00105564
0.00103694
0.00101832
0.000999618
0.000980678
0.000961328
0.000941406
0.000920745
0.000899197
0.000876641
0.000852993
0.000828246
0.000802557
0.000776085
0.000748749
0.000721305
0.000693966
0.000666708
0.000639798
0.000613352
0.000587443
0.000562141
0.000537504
0.000513582
0.000490408
0.000467994
0.000446348
0.000425492
0.000405381
0.000386199
0.000369775
0.00034356
0.000348005
0.00030691
0.000413815
0.000102955
0.000123881
7.72963e-05
7.54225e-05
0.000211806
0.000254177
0.000256849
0.000261431
0.000267768
0.000293557
0.000405963
2.06692e-05
0.000179651
0.000566205
0.000999293
0.00128011
0.00140688
0.00145118
0.00146389
0.001467
0.00146767
0.0014678
0.00146783
0.00146784
0.00146784
0.00146785
0.00146785
0.00146786
0.00146786
0.00146787
0.00146788
0.00146789
0.00146789
0.0014679
0.00146791
0.00146792
0.00146793
0.00146795
0.00146796
0.00146797
0.00146799
0.001468
0.00146802
0.00146803
0.00146805
0.00146807
0.00146809
0.00146811
0.00146813
0.00146815
0.00146817
0.0014682
0.00146822
0.00146825
0.00146828
0.00146831
0.00146834
0.00146837
0.00146278
0.00142629
0.00139113
0.00135747
0.00132523
0.0012943
0.00126465
0.00123619
0.00120888
0.00118264
0.0011574
0.00113309
0.00110962
0.00108693
0.00106491
0.00104348
0.00102254
0.00100198
0.000981685
0.000961548
0.000941452
0.000921266
0.000900866
0.000880133
0.000858953
0.000837224
0.000814875
0.000791872
0.000768227
0.000744071
0.000719636
0.000694697
0.000669857
0.000645316
0.000620987
0.00059701
0.000573477
0.000550422
0.000527884
0.000505884
0.000484426
0.000463497
0.000443083
0.000423185
0.00040382
0.000384943
0.000366742
0.000351343
0.000325339
0.000330543
0.000287776
0.000386618
0.000105153
0.000125622
7.34439e-05
7.13204e-05
0.000208928
0.000260553
0.000268421
0.000278012
0.00028955
0.000323799
0.000452381
2.06686e-05
0.000179659
0.000566229
0.000999322
0.00128013
0.0014069
0.00145119
0.0014639
0.00146701
0.00146768
0.00146781
0.00146783
0.00146784
0.00146785
0.00146785
0.00146786
0.00146786
0.00146787
0.00146788
0.00146788
0.00146789
0.0014679
0.00146791
0.00146792
0.00146793
0.00146794
0.00146795
0.00146797
0.00146798
0.00146799
0.00146801
0.00146802
0.00146804
0.00146806
0.00146808
0.0014681
0.00146812
0.00146814
0.00146816
0.00146819
0.00146821
0.00146824
0.00146827
0.0014683
0.00146833
0.00146836
0.0014684
0.00143138
0.00139409
0.00135825
0.00132383
0.00129071
0.00125885
0.00122817
0.00119863
0.00117016
0.00114271
0.00111621
0.00109058
0.00106577
0.0010417
0.00101829
0.000995467
0.000973155
0.000951263
0.0009297
0.000908383
0.000887215
0.000866106
0.00084497
0.000823714
0.000802263
0.000780556
0.000758555
0.000736263
0.000713703
0.000690977
0.000668305
0.000645546
0.000622918
0.000600764
0.000579008
0.00055759
0.000536642
0.000516157
0.000496131
0.000476533
0.000457317
0.000438436
0.000419854
0.00040156
0.000383564
0.000365807
0.000348466
0.000333985
0.000308106
0.000313831
0.00026996
0.000360021
0.000106774
0.000126666
6.94058e-05
6.71161e-05
0.000203935
0.000265847
0.000279665
0.000296177
0.000315504
0.000362578
0.000514648
2.06679e-05
0.000179667
0.000566253
0.000999351
0.00128015
0.00140691
0.00145119
0.0014639
0.00146701
0.00146768
0.00146781
0.00146784
0.00146785
0.00146785
0.00146786
0.00146786
0.00146787
0.00146787
0.00146788
0.00146789
0.0014679
0.00146791
0.00146792
0.00146793
0.00146794
0.00146795
0.00146796
0.00146797
0.00146799
0.001468
0.00146802
0.00146803
0.00146805
0.00146807
0.00146809
0.00146811
0.00146813
0.00146815
0.00146818
0.0014682
0.00146823
0.00146826
0.00146829
0.00146832
0.00146835
0.00146839
0.00143928
0.00140002
0.00136216
0.00132572
0.00129057
0.00125666
0.00122394
0.00119235
0.00116185
0.00113236
0.00110384
0.00107623
0.00104948
0.00102351
0.00099827
0.0009737
0.000949729
0.000926291
0.000903322
0.000880758
0.000858523
0.00083655
0.000814775
0.000793135
0.000771571
0.000750033
0.000728491
0.000706934
0.000685382
0.000663869
0.000642467
0.000621341
0.000600539
0.000579821
0.000559751
0.000540284
0.000521155
0.000502546
0.000484411
0.000466684
0.000449289
0.000432143
0.000415172
0.000398317
0.000381535
0.000364819
0.000348084
0.000331486
0.000317814
0.000291963
0.00029796
0.000253462
0.000334142
0.000107768
0.000127163
6.52433e-05
6.28417e-05
0.00019655
0.000269299
0.000290006
0.000316166
0.000347558
0.000415358
0.00060501
2.06672e-05
0.000179675
0.000566276
0.00099938
0.00128017
0.00140692
0.0014512
0.00146391
0.00146702
0.00146769
0.00146782
0.00146784
0.00146785
0.00146786
0.00146786
0.00146787
0.00146787
0.00146788
0.00146789
0.0014679
0.0014679
0.00146791
0.00146792
0.00146793
0.00146794
0.00146795
0.00146797
0.00146798
0.00146799
0.00146801
0.00146802
0.00146804
0.00146806
0.00146808
0.0014681
0.00146812
0.00146814
0.00146817
0.00146819
0.00146822
0.00146825
0.00146828
0.00146831
0.00146834
0.00146838
0.00144978
0.00140873
0.00136898
0.00133065
0.00129362
0.00125782
0.0012232
0.00118971
0.00115731
0.00112595
0.00109556
0.00106612
0.00103755
0.00100982
0.000982873
0.000956645
0.000931097
0.000906182
0.000881833
0.000858004
0.000834649
0.000811713
0.000789144
0.000766899
0.000744937
0.000723225
0.000701733
0.000680453
0.000659392
0.000638577
0.000618054
0.000597872
0.000578135
0.000558997
0.000540073
0.000521841
0.000504373
0.000487369
0.000470898
0.000454919
0.000439317
0.000423983
0.00040881
0.000393685
0.000378503
0.000363178
0.000347669
0.000331871
0.000315902
0.000302928
0.000276998
0.000283014
0.000238272
0.000309093
0.000108071
0.000127187
6.10134e-05
5.85741e-05
0.000187001
0.00027027
0.000298246
0.000337526
0.000387991
0.000491743
0.000749329
2.06665e-05
0.000179683
0.000566299
0.000999408
0.0012802
0.00140693
0.00145121
0.00146392
0.00146703
0.00146769
0.00146782
0.00146785
0.00146786
0.00146786
0.00146787
0.00146787
0.00146788
0.00146789
0.00146789
0.0014679
0.00146791
0.00146792
0.00146793
0.00146794
0.00146795
0.00146796
0.00146797
0.00146799
0.001468
0.00146802
0.00146803
0.00146805
0.00146807
0.00146809
0.00146811
0.00146813
0.00146815
0.00146818
0.00146821
0.00146823
0.00146826
0.00146829
0.00146833
0.00146836
0.0014627
0.00142004
0.00137853
0.00133844
0.00129965
0.00126208
0.00122569
0.00119044
0.00115627
0.00112315
0.00109103
0.00105986
0.0010296
0.00100021
0.00097164
0.000943856
0.000916807
0.000890451
0.000864754
0.000839669
0.000815157
0.000791188
0.000767722
0.000744719
0.000722156
0.000700014
0.000678268
0.000656913
0.000635955
0.000615411
0.000595314
0.000575712
0.000556644
0.000538167
0.000520421
0.000503229
0.000486619
0.000470909
0.000455907
0.000441388
0.000427407
0.000413816
0.000400479
0.000387246
0.00037395
0.000360424
0.000346527
0.000332183
0.000317256
0.000301809
0.000289435
0.000263305
0.000269089
0.00022439
0.000284992
0.000107612
0.000126786
5.67669e-05
5.43445e-05
0.000175574
0.000267637
0.000301837
0.000357534
0.000437659
0.000608002
0.00101679
2.06657e-05
0.000179691
0.000566322
0.000999436
0.00128022
0.00140695
0.00145122
0.00146392
0.00146703
0.0014677
0.00146783
0.00146786
0.00146786
0.00146787
0.00146787
0.00146788
0.00146789
0.00146789
0.0014679
0.00146791
0.00146792
0.00146793
0.00146793
0.00146795
0.00146796
0.00146797
0.00146798
0.00146799
0.00146801
0.00146803
0.00146804
0.00146806
0.00146808
0.0014681
0.00146812
0.00146814
0.00146817
0.00146819
0.00146822
0.00146825
0.00146828
0.00146831
0.00146835
0.00146839
0.00143377
0.00139067
0.0013489
0.00130847
0.00126925
0.00123121
0.00119429
0.00115847
0.0011237
0.00108994
0.00105715
0.00102531
0.000994347
0.000964251
0.00093497
0.000906472
0.000878731
0.000851703
0.000825369
0.000799692
0.000774638
0.000750195
0.000726331