/*--------------------------------*- C++ -*----------------------------------*\
| =========                 |                                                 |
| \\      /  F ield         | OpenFOAM: The Open Source CFD Toolbox           |
|  \\    /   O peration     | Version:  v2106                                 |
|   \\  /    A nd           | Website:  www.openfoam.com                      |
|    \\/     M anipulation  |                                                 |
\*---------------------------------------------------------------------------*/
FoamFile
{
    version     2.0;
    format      ascii;
    arch        "LSB;label=32;scalar=64";
    class       volScalarField;
    location    "0.5";
    object      omega;
}
// * * * * * * * * * * * * * * * * * * * * * * * * * * * * * * * * * * * * * //

dimensions      [0 0 -1 0 0 0 0];

internalField   nonuniform List<scalar> 
29678
(
7.55692
1.13776
0.374174
0.213818
0.167369
0.15244
0.147842
0.146578
0.146274
0.146209
0.146197
0.146196
0.146196
0.146196
0.146196
0.146196
0.146197
0.146197
0.146198
0.146198
0.146198
0.146199
0.146199
0.1462
0.146201
0.146201
0.146202
0.146202
0.146203
0.146204
0.146205
0.146205
0.146206
0.146207
0.146208
0.146209
0.14621
0.14621
0.146211
0.146212
0.146213
0.146214
0.146215
0.146216
0.146217
0.146218
0.146218
0.146219
0.14622
0.14622
0.146221
0.146221
0.146221
0.146221
0.146221
0.146221
0.146221
0.14622
0.146219
0.146218
0.146216
0.146214
0.146212
0.14621
0.146208
0.146206
0.146205
0.146203
0.146201
0.1462
0.146198
0.146197
0.146196
0.146195
0.146195
0.146195
0.146196
0.146198
0.146201
0.146205
0.14621
0.146217
0.146225
0.146234
0.146246
0.146259
0.146273
0.146289
0.146307
0.146326
0.146346
0.146367
0.146389
0.146413
0.146437
0.146478
0.146779
0.150582
0.179352
0.494911
0.524207
0.408967
0.310987
0.217999
0.210618
0.172645
0.170979
0.165182
0.166687
0.173004
7.55671
1.1378
0.374184
0.21382
0.167369
0.15244
0.147843
0.146578
0.146274
0.14621
0.146198
0.146196
0.146196
0.146197
0.146197
0.146198
0.146198
0.146199
0.146199
0.1462
0.146201
0.146202
0.146202
0.146203
0.146204
0.146205
0.146206
0.146207
0.146208
0.146209
0.14621
0.146211
0.146213
0.146214
0.146215
0.146216
0.146218
0.146219
0.146221
0.146222
0.146223
0.146225
0.146226
0.146228
0.146229
0.14623
0.146231
0.146233
0.146234
0.146234
0.146235
0.146236
0.146236
0.146236
0.146236
0.146236
0.146235
0.146234
0.146233
0.146231
0.146229
0.146227
0.146224
0.146221
0.146218
0.146216
0.146213
0.14621
0.146208
0.146205
0.146203
0.1462
0.146198
0.146197
0.146196
0.146197
0.146198
0.146201
0.146205
0.146211
0.146219
0.146229
0.146241
0.146255
0.146272
0.146292
0.146313
0.146338
0.146365
0.146396
0.146429
0.146464
0.146502
0.146542
0.146584
0.146628
0.146711
0.147587
0.156457
0.254165
0.440572
0.380569
0.289982
0.221559
0.203884
0.169348
0.166039
0.157846
0.15723
0.151828
7.55671
1.13778
0.374179
0.213818
0.167369
0.15244
0.147843
0.146578
0.146274
0.14621
0.146198
0.146197
0.146197
0.146197
0.146198
0.146199
0.146199
0.1462
0.146201
0.146201
0.146202
0.146203
0.146204
0.146205
0.146206
0.146207
0.146208
0.146209
0.146211
0.146212
0.146213
0.146215
0.146216
0.146218
0.146219
0.146221
0.146222
0.146224
0.146226
0.146227
0.146229
0.146231
0.146232
0.146234
0.146236
0.146237
0.146239
0.14624
0.146241
0.146242
0.146243
0.146244
0.146244
0.146245
0.146245
0.146244
0.146244
0.146242
0.146241
0.146239
0.146237
0.146234
0.146231
0.146228
0.146225
0.146222
0.146219
0.146216
0.146212
0.146209
0.146206
0.146203
0.146201
0.1462
0.146199
0.1462
0.146201
0.146205
0.14621
0.146217
0.146227
0.146239
0.146253
0.146271
0.146292
0.146315
0.146342
0.146373
0.146407
0.146445
0.146486
0.14653
0.146576
0.146624
0.146673
0.146721
0.146764
0.147075
0.151854
0.225288
0.247214
0.331435
0.173354
0.220008
0.17102
0.168097
0.160009
0.155794
0.153285
0.150619
7.55671
1.13773
0.374165
0.213813
0.167367
0.152439
0.147842
0.146579
0.146274
0.14621
0.146199
0.146197
0.146197
0.146198
0.146198
0.146199
0.1462
0.1462
0.146201
0.146202
0.146203
0.146204
0.146205
0.146206
0.146207
0.146208
0.146209
0.14621
0.146212
0.146213
0.146215
0.146216
0.146218
0.146219
0.146221
0.146223
0.146224
0.146226
0.146228
0.14623
0.146231
0.146233
0.146235
0.146237
0.146238
0.14624
0.146242
0.146243
0.146244
0.146245
0.146246
0.146247
0.146248
0.146248
0.146248
0.146248
0.146247
0.146246
0.146245
0.146243
0.146241
0.146238
0.146235
0.146232
0.146229
0.146226
0.146223
0.14622
0.146216
0.146213
0.14621
0.146207
0.146205
0.146204
0.146203
0.146204
0.146206
0.14621
0.146216
0.146224
0.146234
0.146248
0.146264
0.146283
0.146305
0.146331
0.14636
0.146393
0.14643
0.14647
0.146513
0.146558
0.146606
0.146655
0.146705
0.146755
0.146788
0.1469
0.1496
0.19979
0.210757
0.200932
0.172002
0.195053
0.162743
0.16871
0.158935
0.157824
0.154639
0.153353
7.55669
1.13768
0.374149
0.213807
0.167365
0.152439
0.147842
0.146579
0.146275
0.146211
0.146199
0.146197
0.146197
0.146198
0.146198
0.146199
0.1462
0.146201
0.146201
0.146202
0.146203
0.146204
0.146205
0.146206
0.146207
0.146208
0.14621
0.146211
0.146212
0.146214
0.146215
0.146217
0.146218
0.14622
0.146222
0.146223
0.146225
0.146227
0.146229
0.14623
0.146232
0.146234
0.146236
0.146238
0.14624
0.146241
0.146243
0.146244
0.146246
0.146247
0.146248
0.146249
0.14625
0.14625
0.14625
0.14625
0.14625
0.146249
0.146247
0.146246
0.146243
0.146241
0.146238
0.146235
0.146233
0.14623
0.146227
0.146224
0.146221
0.146217
0.146215
0.146212
0.14621
0.146209
0.146209
0.14621
0.146213
0.146217
0.146223
0.146232
0.146243
0.146257
0.146274
0.146295
0.146318
0.146344
0.146375
0.146409
0.146447
0.146488
0.146531
0.146578
0.146626
0.146676
0.146727
0.146779
0.146807
0.146853
0.148645
0.188358
0.186369
0.177792
0.16998
0.182263
0.15735
0.165823
0.155769
0.15716
0.153553
0.15326
7.55666
1.13763
0.374133
0.213801
0.167362
0.152438
0.147842
0.146579
0.146275
0.146211
0.146199
0.146197
0.146198
0.146198
0.146199
0.146199
0.1462
0.146201
0.146202
0.146202
0.146203
0.146204
0.146205
0.146206
0.146207
0.146209
0.14621
0.146211
0.146213
0.146214
0.146215
0.146217
0.146219
0.14622
0.146222
0.146224
0.146226
0.146227
0.146229
0.146231
0.146233
0.146235
0.146237
0.146239
0.14624
0.146242
0.146244
0.146245
0.146247
0.146248
0.14625
0.146251
0.146251
0.146252
0.146252
0.146252
0.146252
0.146251
0.14625
0.146248
0.146246
0.146244
0.146241
0.146239
0.146237
0.146234
0.146231
0.146229
0.146226
0.146223
0.14622
0.146218
0.146216
0.146216
0.146216
0.146218
0.146221
0.146226
0.146233
0.146242
0.146254
0.146269
0.146287
0.146307
0.146332
0.146359
0.146391
0.146426
0.146465
0.146507
0.146552
0.1466
0.146649
0.146701
0.146753
0.146807
0.146833
0.146849
0.14819
0.179944
0.176311
0.166574
0.164964
0.171648
0.155022
0.163008
0.155068
0.157159
0.154072
0.15435
7.55662
1.13757
0.374116
0.213795
0.16736
0.152437
0.147842
0.146579
0.146275
0.146211
0.146199
0.146198
0.146198
0.146198
0.146199
0.1462
0.1462
0.146201
0.146202
0.146203
0.146204
0.146205
0.146206
0.146207
0.146208
0.146209
0.14621
0.146212
0.146213
0.146214
0.146216
0.146217
0.146219
0.146221
0.146222
0.146224
0.146226
0.146228
0.14623
0.146232
0.146234
0.146236
0.146237
0.146239
0.146241
0.146243
0.146245
0.146247
0.146248
0.14625
0.146251
0.146252
0.146253
0.146254
0.146254
0.146254
0.146254
0.146254
0.146253
0.146251
0.146249
0.146247
0.146246
0.146244
0.146242
0.146239
0.146237
0.146234
0.146232
0.146229
0.146227
0.146225
0.146224
0.146224
0.146225
0.146227
0.146231
0.146236
0.146244
0.146254
0.146267
0.146282
0.146301
0.146323
0.146348
0.146377
0.14641
0.146447
0.146487
0.146531
0.146577
0.146627
0.146678
0.146731
0.146786
0.146842
0.146866
0.146868
0.147934
0.174487
0.170358
0.162837
0.161152
0.165802
0.153688
0.160683
0.154083
0.156436
0.153612
0.154169
7.55656
1.13752
0.3741
0.213789
0.167358
0.152436
0.147842
0.146579
0.146275
0.146211
0.1462
0.146198
0.146198
0.146199
0.146199
0.1462
0.146201
0.146201
0.146202
0.146203
0.146204
0.146205
0.146206
0.146207
0.146208
0.146209
0.146211
0.146212
0.146213
0.146215
0.146216
0.146218
0.146219
0.146221
0.146223
0.146225
0.146226
0.146228
0.14623
0.146232
0.146234
0.146236
0.146238
0.14624
0.146242
0.146244
0.146246
0.146248
0.146249
0.146251
0.146253
0.146254
0.146255
0.146256
0.146256
0.146257
0.146257
0.146256
0.146256
0.146255
0.146253
0.146252
0.14625
0.146249
0.146247
0.146245
0.146243
0.146241
0.146239
0.146237
0.146235
0.146234
0.146233
0.146234
0.146235
0.146238
0.146242
0.146249
0.146257
0.146268
0.146282
0.146299
0.146318
0.146341
0.146368
0.146399
0.146433
0.146471
0.146514
0.146559
0.146608
0.14666
0.146713
0.146769
0.146825
0.146885
0.146909
0.146903
0.147763
0.170677
0.166552
0.160944
0.159369
0.161336
0.152296
0.158554
0.153186
0.155656
0.153196
0.153879
7.55649
1.13747
0.374084
0.213783
0.167356
0.152436
0.147842
0.146579
0.146276
0.146212
0.1462
0.146198
0.146198
0.146199
0.1462
0.1462
0.146201
0.146202
0.146202
0.146203
0.146204
0.146205
0.146206
0.146207
0.146208
0.14621
0.146211
0.146212
0.146214
0.146215
0.146217
0.146218
0.14622
0.146222
0.146223
0.146225
0.146227
0.146229
0.146231
0.146233
0.146235
0.146237
0.146239
0.146241
0.146243
0.146245
0.146247
0.146249
0.146251
0.146253
0.146254
0.146256
0.146257
0.146258
0.146259
0.14626
0.14626
0.14626
0.146259
0.146259
0.146258
0.146257
0.146256
0.146255
0.146253
0.146252
0.14625
0.146248
0.146247
0.146245
0.146244
0.146244
0.146244
0.146245
0.146247
0.146251
0.146256
0.146264
0.146273
0.146286
0.1463
0.146318
0.146339
0.146364
0.146392
0.146425
0.146461
0.146501
0.146546
0.146594
0.146645
0.146699
0.146756
0.146814
0.146874
0.146937
0.14696
0.146954
0.14765
0.167927
0.164168
0.159924
0.158719
0.15774
0.151405
0.156743
0.152297
0.154829
0.15259
0.153211
7.55641
1.13742
0.374068
0.213777
0.167353
0.152435
0.147842
0.14658
0.146276
0.146212
0.1462
0.146199
0.146199
0.146199
0.1462
0.146201
0.146201
0.146202
0.146203
0.146204
0.146205
0.146206
0.146207
0.146208
0.146209
0.14621
0.146211
0.146213
0.146214
0.146216
0.146217
0.146219
0.14622
0.146222
0.146224
0.146226
0.146228
0.14623
0.146232
0.146234
0.146236
0.146238
0.14624
0.146242
0.146244
0.146247
0.146249
0.146251
0.146253
0.146255
0.146256
0.146258
0.14626
0.146261
0.146262
0.146263
0.146263
0.146264
0.146264
0.146263
0.146263
0.146262
0.146262
0.146261
0.14626
0.146259
0.146258
0.146257
0.146256
0.146255
0.146255
0.146255
0.146256
0.146258
0.146262
0.146266
0.146273
0.146281
0.146292
0.146305
0.146321
0.14634
0.146363
0.14639
0.146421
0.146455
0.146494
0.146537
0.146584
0.146634
0.146689
0.146746
0.146806
0.146868
0.146931
0.147
0.147022
0.147021
0.14758
0.165899
0.162588
0.159615
0.158286
0.154978
0.151087
0.154984
0.151644
0.15395
0.151902
0.152068
7.55631
1.13737
0.374052
0.213771
0.167351
0.152435
0.147842
0.14658
0.146276
0.146212
0.146201
0.146199
0.146199
0.1462
0.1462
0.146201
0.146202
0.146202
0.146203
0.146204
0.146205
0.146206
0.146207
0.146208
0.146209
0.14621
0.146212
0.146213
0.146215
0.146216
0.146218
0.146219
0.146221
0.146223
0.146225
0.146226
0.146228
0.14623
0.146233
0.146235
0.146237
0.146239
0.146241
0.146244
0.146246
0.146248
0.14625
0.146253
0.146255
0.146257
0.146259
0.146261
0.146262
0.146264
0.146265
0.146267
0.146267
0.146268
0.146268
0.146269
0.146269
0.146269
0.146269
0.146269
0.146268
0.146268
0.146268
0.146267
0.146267
0.146267
0.146268
0.146269
0.146271
0.146274
0.146278
0.146284
0.146292
0.146301
0.146313
0.146328
0.146346
0.146367
0.146392
0.146421
0.146454
0.146492
0.146533
0.146579
0.146629
0.146683
0.146741
0.146802
0.146866
0.146932
0.146999
0.147075
0.147096
0.147105
0.147545
0.164384
0.161511
0.159668
0.157965
0.153068
0.150915
0.15333
0.151327
0.152977
0.15135
0.149721
7.5562
1.13732
0.374036
0.213765
0.167349
0.152434
0.147842
0.14658
0.146277
0.146213
0.146201
0.146199
0.1462
0.1462
0.146201
0.146201
0.146202
0.146203
0.146204
0.146204
0.146205
0.146206
0.146207
0.146209
0.14621
0.146211
0.146212
0.146214
0.146215
0.146217
0.146218
0.14622
0.146222
0.146223
0.146225
0.146227
0.146229
0.146231
0.146233
0.146236
0.146238
0.14624
0.146243
0.146245
0.146247
0.14625
0.146252
0.146254
0.146257
0.146259
0.146261
0.146263
0.146265
0.146267
0.146269
0.146271
0.146272
0.146273
0.146274
0.146274
0.146275
0.146276
0.146276
0.146277
0.146277
0.146278
0.146278
0.146278
0.146279
0.14628
0.146282
0.146284
0.146287
0.146291
0.146297
0.146304
0.146313
0.146324
0.146338
0.146355
0.146375
0.146399
0.146426
0.146458
0.146494
0.146534
0.146578
0.146628
0.146681
0.146739
0.146801
0.146867
0.146936
0.147007
0.147079
0.147163
0.147184
0.147207
0.147538
0.163244
0.160759
0.159862
0.157866
0.151812
0.150576
0.152005
0.151092
0.151994
0.150955
0.149186
7.55608
1.13726
0.37402
0.21376
0.167347
0.152434
0.147843
0.146581
0.146277
0.146213
0.146201
0.1462
0.1462
0.146201
0.146201
0.146202
0.146202
0.146203
0.146204
0.146205
0.146206
0.146207
0.146208
0.146209
0.14621
0.146211
0.146213
0.146214
0.146216
0.146217
0.146219
0.146221
0.146222
0.146224
0.146226
0.146228
0.14623
0.146232
0.146234
0.146237
0.146239
0.146242
0.146244
0.146246
0.146249
0.146252
0.146254
0.146257
0.146259
0.146262
0.146264
0.146267
0.146269
0.146271
0.146273
0.146275
0.146277
0.146278
0.14628
0.146281
0.146282
0.146284
0.146285
0.146286
0.146287
0.146289
0.14629
0.146291
0.146293
0.146295
0.146298
0.146301
0.146306
0.146311
0.146318
0.146327
0.146338
0.146351
0.146367
0.146386
0.146409
0.146435
0.146466
0.1465
0.146539
0.146583
0.146631
0.146685
0.146743
0.146805
0.146872
0.146943
0.147018
0.147095
0.147174
0.147267
0.147287
0.147332
0.147557
0.162391
0.160231
0.160104
0.158061
0.151116
0.150253
0.151104
0.150822
0.151262
0.150595
0.148817
7.55595
1.13721
0.374005
0.213754
0.167345
0.152433
0.147843
0.146581
0.146277
0.146214
0.146202
0.1462
0.146201
0.146201
0.146202
0.146202
0.146203
0.146204
0.146205
0.146205
0.146206
0.146207
0.146208
0.14621
0.146211
0.146212
0.146213
0.146215
0.146216
0.146218
0.14622
0.146221
0.146223
0.146225
0.146227
0.146229
0.146231
0.146233
0.146236
0.146238
0.14624
0.146243
0.146245
0.146248
0.146251
0.146253
0.146256
0.146259
0.146262
0.146265
0.146267
0.14627
0.146273
0.146275
0.146278
0.14628
0.146282
0.146284
0.146286
0.146288
0.14629
0.146292
0.146295
0.146297
0.146299
0.146301
0.146303
0.146305
0.146308
0.146312
0.146316
0.146321
0.146327
0.146334
0.146343
0.146353
0.146366
0.146382
0.1464
0.146422
0.146448
0.146477
0.146511
0.146549
0.146592
0.14664
0.146693
0.146751
0.146814
0.146882
0.146955
0.147033
0.147114
0.147199
0.147285
0.147391
0.147407
0.147481
0.147601
0.161762
0.159876
0.160371
0.15856
0.150768
0.150022
0.150543
0.150566
0.15076
0.150255
0.148573
7.5558
1.13716
0.373989
0.213749
0.167343
0.152433
0.147843
0.146581
0.146278
0.146214
0.146202
0.146201
0.146201
0.146202
0.146202
0.146203
0.146204
0.146204
0.146205
0.146206
0.146207
0.146208
0.146209
0.14621
0.146211
0.146213
0.146214
0.146215
0.146217
0.146219
0.14622
0.146222
0.146224
0.146226
0.146228
0.14623
0.146232
0.146234
0.146237
0.146239
0.146242
0.146244
0.146247
0.14625
0.146253
0.146256
0.146259
0.146262
0.146265
0.146268
0.146271
0.146274
0.146277
0.14628
0.146283
0.146285
0.146288
0.146291
0.146293
0.146296
0.146299
0.146302
0.146305
0.146308
0.146311
0.146314
0.146318
0.146321
0.146326
0.14633
0.146336
0.146343
0.14635
0.14636
0.146371
0.146384
0.146399
0.146417
0.146439
0.146464
0.146493
0.146526
0.146564
0.146606
0.146654
0.146706
0.146764
0.146828
0.146897
0.146972
0.147052
0.147137
0.147227
0.14732
0.147415
0.147535
0.147549
0.14766
0.147671
0.161315
0.159675
0.160677
0.159293
0.150634
0.149876
0.150211
0.15034
0.150427
0.149965
0.148411
7.55564
1.13711
0.373974
0.213743
0.167341
0.152433
0.147843
0.146582
0.146278
0.146215
0.146203
0.146201
0.146202
0.146202
0.146203
0.146203
0.146204
0.146205
0.146206
0.146207
0.146208
0.146209
0.14621
0.146211
0.146212
0.146213
0.146215
0.146216
0.146218
0.146219
0.146221
0.146223
0.146225
0.146227
0.146229
0.146231
0.146233
0.146236
0.146238
0.146241
0.146243
0.146246
0.146249
0.146252
0.146255
0.146258
0.146261
0.146264
0.146268
0.146271
0.146274
0.146278
0.146281
0.146285
0.146288
0.146291
0.146295
0.146298
0.146301
0.146305
0.146309
0.146313
0.146317
0.146321
0.146325
0.146329
0.146334
0.146339
0.146345
0.146352
0.146359
0.146368
0.146378
0.146389
0.146402
0.146418
0.146436
0.146458
0.146483
0.146512
0.146545
0.146582
0.146624
0.146672
0.146724
0.146783
0.146847
0.146917
0.146994
0.147076
0.147165
0.147259
0.147358
0.147462
0.147567
0.147706
0.147716
0.147873
0.147768
0.161019
0.159616
0.161038
0.160048
0.15062
0.149782
0.150026
0.150163
0.150203
0.149739
0.148295
7.55546
1.13706
0.373959
0.213738
0.16734
0.152432
0.147843
0.146582
0.146279
0.146215
0.146204
0.146202
0.146202
0.146203
0.146203
0.146204
0.146205
0.146205
0.146206
0.146207
0.146208
0.146209
0.14621
0.146211
0.146213
0.146214
0.146215
0.146217
0.146218
0.14622
0.146222
0.146224
0.146226
0.146228
0.14623
0.146232
0.146234
0.146237
0.146239
0.146242
0.146245
0.146248
0.146251
0.146254
0.146257
0.14626
0.146264
0.146267
0.146271
0.146275
0.146278
0.146282
0.146286
0.14629
0.146294
0.146298
0.146302
0.146306
0.14631
0.146315
0.146319
0.146324
0.146329
0.146335
0.14634
0.146346
0.146352
0.146359
0.146367
0.146375
0.146385
0.146396
0.146408
0.146422
0.146439
0.146458
0.146479
0.146504
0.146533
0.146567
0.146604
0.146647
0.146694
0.146747
0.146806
0.146871
0.146943
0.147021
0.147106
0.147198
0.147296
0.147401
0.147512
0.147627
0.147744
0.147907
0.147911
0.148128
0.147897
0.16085
0.159642
0.161459
0.161037
0.150753
0.149786
0.149956
0.150056
0.150054
0.14957
0.148211
7.55528
1.13701
0.373944
0.213733
0.167338
0.152432
0.147844
0.146583
0.14628
0.146216
0.146204
0.146203
0.146203
0.146203
0.146204
0.146205
0.146205
0.146206
0.146207
0.146208
0.146209
0.14621
0.146211
0.146212
0.146213
0.146215
0.146216
0.146218
0.146219
0.146221
0.146223
0.146225
0.146227
0.146229
0.146231
0.146233
0.146236
0.146238
0.146241
0.146244
0.146247
0.14625
0.146253
0.146256
0.146259
0.146263
0.146267
0.14627
0.146274
0.146278
0.146283
0.146287
0.146291
0.146296
0.1463
0.146305
0.14631
0.146314
0.14632
0.146325
0.146331
0.146337
0.146343
0.14635
0.146357
0.146364
0.146373
0.146381
0.146391
0.146402
0.146414
0.146427
0.146443
0.14646
0.14648
0.146502
0.146528
0.146558
0.146591
0.14663
0.146673
0.146721
0.146775
0.146835
0.146901
0.146974
0.147054
0.147141
0.147236
0.147338
0.147448
0.147566
0.14769
0.147821
0.147953
0.148144
0.148141
0.148432
0.148063
0.160791
0.159761
0.161961
0.162256
0.151093
0.149898
0.149973
0.150012
0.149961
0.149446
0.148152
7.55508
1.13696
0.37393
0.213727
0.167336
0.152432
0.147844
0.146583
0.14628
0.146216
0.146205
0.146203
0.146203
0.146204
0.146205
0.146205
0.146206
0.146207
0.146208
0.146208
0.146209
0.146211
0.146212
0.146213
0.146214
0.146215
0.146217
0.146218
0.14622
0.146222
0.146224
0.146226
0.146228
0.14623
0.146232
0.146234
0.146237
0.14624
0.146242
0.146245
0.146248
0.146251
0.146255
0.146258
0.146262
0.146266
0.14627
0.146274
0.146278
0.146282
0.146287
0.146292
0.146297
0.146302
0.146307
0.146312
0.146318
0.146324
0.14633
0.146337
0.146344
0.146351
0.146359
0.146367
0.146376
0.146385
0.146395
0.146406
0.146418
0.146432
0.146446
0.146463
0.146482
0.146503
0.146527
0.146554
0.146584
0.146619
0.146658
0.146702
0.146751
0.146807
0.146868
0.146936
0.147011
0.147093
0.147183
0.147281
0.147387
0.147502
0.147625
0.147758
0.147899
0.148048
0.148196
0.148423
0.148411
0.148794
0.148271
0.160835
0.160003
0.162579
0.163481
0.151502
0.150053
0.150039
0.150013
0.149905
0.149352
0.14811
7.55487
1.13691
0.373916
0.213722
0.167334
0.152431
0.147844
0.146584
0.146281
0.146217
0.146205
0.146204
0.146204
0.146205
0.146205
0.146206
0.146207
0.146207
0.146208
0.146209
0.14621
0.146211
0.146212
0.146214
0.146215
0.146216
0.146218
0.146219
0.146221
0.146223
0.146225
0.146227
0.146229
0.146231
0.146233
0.146236
0.146238
0.146241
0.146244
0.146247
0.14625
0.146254
0.146257
0.146261
0.146265
0.146269
0.146273
0.146277
0.146282
0.146287
0.146292
0.146297
0.146303
0.146308
0.146314
0.146321
0.146327
0.146334
0.146341
0.146349
0.146357
0.146366
0.146375
0.146385
0.146396
0.146407
0.14642
0.146433
0.146448
0.146465
0.146483
0.146503
0.146526
0.146551
0.14658
0.146612
0.146648
0.146689
0.146734
0.146785
0.146842
0.146905
0.146975
0.147053
0.147138
0.147231
0.147332
0.147442
0.147562
0.147691
0.147831
0.147981
0.148142
0.148312
0.148481
0.148751
0.148728
0.149226
0.14853
0.160976
0.160356
0.163318
0.164902
0.152015
0.150261
0.150148
0.150047
0.149876
0.149276
0.148079
7.55465
1.13686
0.373901
0.213717
0.167333
0.152431
0.147845
0.146585
0.146281
0.146218
0.146206
0.146204
0.146205
0.146205
0.146206
0.146207
0.146207
0.146208
0.146209
0.14621
0.146211
0.146212
0.146213
0.146214
0.146216
0.146217
0.146219
0.14622
0.146222
0.146224
0.146226
0.146228
0.14623
0.146232
0.146234
0.146237
0.14624
0.146243
0.146246
0.146249
0.146252
0.146256
0.146259
0.146263
0.146267
0.146272
0.146276
0.146281
0.146286
0.146291
0.146297
0.146303
0.146309
0.146315
0.146322
0.146329
0.146337
0.146345
0.146353
0.146362
0.146372
0.146383
0.146394
0.146406
0.146418
0.146432
0.146447
0.146464
0.146482
0.146502
0.146524
0.146549
0.146576
0.146606
0.14664
0.146678
0.146721
0.146769
0.146822
0.146881
0.146947
0.14702
0.1471
0.147188
0.147285
0.14739
0.147505
0.14763
0.147765
0.147912
0.14807
0.14824
0.148424
0.14862
0.148814
0.149138
0.149103
0.14974
0.148853
0.161212
0.160812
0.164181
0.166564
0.152659
0.15053
0.1503
0.15011
0.149863
0.14921
0.148055
7.55441
1.13682
0.373888
0.213713
0.167331
0.152431
0.147845
0.146585
0.146282
0.146218
0.146207
0.146205
0.146205
0.146206
0.146207
0.146207
0.146208
0.146209
0.14621
0.146211
0.146212
0.146213
0.146214
0.146215
0.146217
0.146218
0.146219
0.146221
0.146223
0.146225
0.146227
0.146229
0.146231
0.146233
0.146236
0.146238
0.146241
0.146244
0.146247
0.146251
0.146254
0.146258
0.146262
0.146266
0.14627
0.146275
0.14628
0.146285
0.146291
0.146296
0.146303
0.146309
0.146316
0.146323
0.146331
0.146339
0.146347
0.146356
0.146366
0.146377
0.146388
0.1464
0.146414
0.146428
0.146443
0.14646
0.146478
0.146498
0.146519
0.146543
0.14657
0.146599
0.146632
0.146669
0.146709
0.146754
0.146805
0.146861
0.146923
0.146992
0.147069
0.147152
0.147245
0.147345
0.147455
0.147575
0.147706
0.147847
0.148001
0.148167
0.148347
0.148541
0.148753
0.14898
0.149202
0.149594
0.149544
0.150353
0.149255
0.161548
0.161371
0.165178
0.168501
0.153461
0.150865
0.150494
0.150196
0.149861
0.149147
0.148034
7.55416
1.13677
0.373874
0.213708
0.16733
0.152431
0.147846
0.146586
0.146283
0.146219
0.146207
0.146206
0.146206
0.146207
0.146207
0.146208
0.146209
0.14621
0.14621
0.146211
0.146212
0.146214
0.146215
0.146216
0.146217
0.146219
0.14622
0.146222
0.146224
0.146226
0.146228
0.14623
0.146232
0.146235
0.146237
0.14624
0.146243
0.146246
0.146249
0.146253
0.146256
0.14626
0.146264
0.146269
0.146274
0.146278
0.146284
0.146289
0.146295
0.146302
0.146308
0.146315
0.146323
0.146331
0.146339
0.146349
0.146358
0.146369
0.14638
0.146392
0.146406
0.14642
0.146435
0.146452
0.14647
0.14649
0.146511
0.146535
0.146561
0.14659
0.146622
0.146657
0.146696
0.146739
0.146787
0.146841
0.1469
0.146966
0.147039
0.14712
0.147209
0.147306
0.147412
0.147528
0.147654
0.147791
0.147939
0.1481
0.148274
0.148463
0.148668
0.148891
0.149134
0.149398
0.149655
0.15013
0.150065
0.151083
0.149755
0.161992
0.162035
0.16632
0.170765
0.15446
0.151276
0.150737
0.150307
0.149865
0.149083
0.148018
7.5539
1.13672
0.373861
0.213703
0.167329
0.152431
0.147846
0.146586
0.146283
0.14622
0.146208
0.146207
0.146207
0.146207
0.146208
0.146209
0.146209
0.14621
0.146211
0.146212
0.146213
0.146214
0.146216
0.146217
0.146218
0.14622
0.146221
0.146223
0.146225
0.146227
0.146229
0.146231
0.146233
0.146236
0.146239
0.146241
0.146244
0.146248
0.146251
0.146255
0.146259
0.146263
0.146267
0.146272
0.146277
0.146282
0.146288
0.146294
0.1463
0.146307
0.146314
0.146322
0.14633
0.146339
0.146349
0.146359
0.14637
0.146382
0.146395
0.146409
0.146424
0.146441
0.146459
0.146478
0.146499
0.146523
0.146548
0.146576
0.146607
0.146642
0.146679
0.146721
0.146768
0.146819
0.146877
0.14694
0.14701
0.147088
0.147174
0.147268
0.147372
0.147485
0.147608
0.147741
0.147886
0.148042
0.148211
0.148394
0.148591
0.148806
0.14904
0.149295
0.149577
0.149885
0.150182
0.150759
0.150678
0.15195
0.150377
0.162559
0.162811
0.16762
0.173429
0.155725
0.15179
0.151046
0.150452
0.14988
0.149018
0.148012
7.55363
1.13668
0.373848
0.213699
0.167327
0.152431
0.147847
0.146587
0.146284
0.14622
0.146209
0.146207
0.146208
0.146208
0.146209
0.146209
0.14621
0.146211
0.146212
0.146213
0.146214
0.146215
0.146216
0.146218
0.146219
0.146221
0.146222
0.146224
0.146226
0.146228
0.14623
0.146232
0.146235
0.146237
0.14624
0.146243
0.146246
0.146249
0.146253
0.146257
0.146261
0.146265
0.14627
0.146275
0.14628
0.146286
0.146292
0.146298
0.146305
0.146313
0.146321
0.146329
0.146338
0.146348
0.146359
0.14637
0.146383
0.146396
0.146411
0.146427
0.146445
0.146464
0.146484
0.146507
0.146532
0.146559
0.146589
0.146622
0.146659
0.146699
0.146744
0.146794
0.146849
0.146911
0.146979
0.147054
0.147137
0.147229
0.14733
0.14744
0.147562
0.147694
0.147837
0.147991
0.148157
0.148336
0.148528
0.148736
0.14896
0.149204
0.149471
0.149763
0.150088
0.150448
0.150792
0.151496
0.1514
0.152979
0.151154
0.16327
0.163711
0.169097
0.176583
0.157358
0.152458
0.151467
0.150665
0.14993
0.148978
0.148018
7.55335
1.13663
0.373835
0.213695
0.167326
0.152431
0.147847
0.146588
0.146285
0.146221
0.14621
0.146208
0.146208
0.146209
0.146209
0.14621
0.146211
0.146212
0.146213
0.146214
0.146215
0.146216
0.146217
0.146219
0.14622
0.146222
0.146223
0.146225
0.146227
0.146229
0.146231
0.146233
0.146236
0.146239
0.146241
0.146245
0.146248
0.146251
0.146255
0.146259
0.146263
0.146268
0.146273
0.146278
0.146284
0.14629
0.146296
0.146303
0.146311
0.146319
0.146327
0.146337
0.146347
0.146358
0.146369
0.146382
0.146396
0.146411
0.146428
0.146446
0.146466
0.146488
0.146512
0.146538
0.146567
0.146599
0.146634
0.146673
0.146716
0.146764
0.146817
0.146876
0.146941
0.147014
0.147095
0.147184
0.147283
0.147392
0.147511
0.147641
0.147783
0.147939
0.148106
0.148284
0.148475
0.14868
0.1489
0.149136
0.149391
0.149667
0.149969
0.150303
0.150677
0.151098
0.151497
0.152353
0.152247
0.154197
0.152127
0.164157
0.164752
0.170777
0.180348
0.15938
0.153294
0.151997
0.150941
0.150026
0.148988
0.148048
7.55306
1.13659
0.373823
0.21369
0.167325
0.152431
0.147848
0.146588
0.146286
0.146222
0.14621
0.146209
0.146209
0.14621
0.14621
0.146211
0.146212
0.146213
0.146214
0.146215
0.146216
0.146217
0.146218
0.14622
0.146221
0.146223
0.146224
0.146226
0.146228
0.14623
0.146232
0.146235
0.146237
0.14624
0.146243
0.146246
0.14625
0.146253
0.146257
0.146261
0.146266
0.146271
0.146276
0.146281
0.146287
0.146294
0.146301
0.146308
0.146316
0.146325
0.146334
0.146344
0.146356
0.146368
0.146381
0.146395
0.14641
0.146427
0.146446
0.146467
0.146489
0.146514
0.146541
0.146572
0.146605
0.146642
0.146683
0.146729
0.146779
0.146836
0.146898
0.146968
0.147046
0.147132
0.147228
0.147335
0.147452
0.147581
0.147723
0.147877
0.148044
0.148226
0.148423
0.14863
0.148851
0.149087
0.149338
0.149606
0.149893
0.150204
0.150545
0.150924
0.151353
0.151844
0.152306
0.153348
0.15324
0.155636
0.153348
0.165262
0.165946
0.172653
0.184677
0.161858
0.154585
0.152955
0.151533
0.150343
0.149145
0.148126
7.55276
1.13654
0.373811
0.213686
0.167323
0.152431
0.147848
0.146589
0.146286
0.146223
0.146211
0.146209
0.14621
0.14621
0.146211
0.146212
0.146213
0.146213
0.146214
0.146215
0.146217
0.146218
0.146219
0.14622
0.146222
0.146224
0.146225
0.146227
0.146229
0.146231
0.146234
0.146236
0.146239
0.146241
0.146245
0.146248
0.146251
0.146255
0.146259
0.146264
0.146268
0.146273
0.146279
0.146285
0.146291
0.146298
0.146305
0.146313
0.146322
0.146331
0.146341
0.146353
0.146365
0.146378
0.146392
0.146408
0.146425
0.146444
0.146465
0.146489
0.146514
0.146542
0.146573
0.146608
0.146647
0.146689
0.146737
0.14679
0.14685
0.146916
0.14699
0.147072
0.147165
0.147267
0.147382
0.147508
0.147648
0.147802
0.147971
0.148155
0.148353
0.148567
0.148798
0.149042
0.149299
0.14957
0.149857
0.150159
0.150482
0.150829
0.151211
0.151636
0.152123
0.152693
0.153227
0.154492
0.154399
0.157331
0.154888
0.16662
0.167265
0.174783
0.190166
0.164675
0.155929
0.153919
0.152135
0.150748
0.149482
0.148315
7.55244
1.1365
0.3738
0.213683
0.167322
0.152431
0.147849
0.14659
0.146287
0.146223
0.146212
0.14621
0.14621
0.146211
0.146212
0.146212
0.146213
0.146214
0.146215
0.146216
0.146217
0.146219
0.14622
0.146221
0.146223
0.146224
0.146226
0.146228
0.14623
0.146232
0.146235
0.146237
0.14624
0.146243
0.146246
0.146249
0.146253
0.146257
0.146261
0.146266
0.146271
0.146276
0.146282
0.146288
0.146295
0.146302
0.14631
0.146318
0.146328
0.146338
0.146349
0.146361
0.146374
0.146388
0.146404
0.146422
0.146441
0.146462
0.146486
0.146512
0.14654
0.146572
0.146608
0.146647
0.146692
0.146741
0.146796
0.146858
0.146927
0.147005
0.147092
0.14719
0.147299
0.147421
0.147558
0.147709
0.147876
0.148061
0.148263
0.148483
0.14872
0.148973
0.149247
0.149537
0.149836
0.150149
0.150476
0.150817
0.151175
0.151559
0.15198
0.152451
0.152998
0.153654
0.154267
0.155793
0.15574
0.159307
0.156829
0.168281
0.168789
0.177062
0.195934
0.168592
0.158919
0.156435
0.15386
0.151891
0.150245
0.14869
7.55212
1.13646
0.373789
0.213679
0.167321
0.152431
0.147849
0.14659
0.146288
0.146224
0.146212
0.146211
0.146211
0.146212
0.146212
0.146213
0.146214
0.146215
0.146216
0.146217
0.146218
0.146219
0.146221
0.146222
0.146224
0.146225
0.146227
0.146229
0.146231
0.146234
0.146236
0.146239
0.146241
0.146244
0.146248
0.146251
0.146255
0.146259
0.146263
0.146268
0.146273
0.146279
0.146285
0.146291
0.146299
0.146306
0.146315
0.146324
0.146334
0.146345
0.146357
0.14637
0.146384
0.1464
0.146417
0.146436
0.146457
0.146481
0.146507
0.146536
0.146568
0.146604
0.146645
0.14669
0.14674
0.146797
0.146861
0.146933
0.147013
0.147105
0.147207
0.147322
0.147452
0.147598
0.14776
0.147942
0.148143
0.148365
0.148609
0.148874
0.14916
0.149464
0.149789
0.150134
0.150489
0.15085
0.151223
0.151605
0.152
0.152417