/*--------------------------------*- C++ -*----------------------------------*\
| =========                 |                                                 |
| \\      /  F ield         | OpenFOAM: The Open Source CFD Toolbox           |
|  \\    /   O peration     | Version:  v2106                                 |
|   \\  /    A nd           | Website:  www.openfoam.com                      |
|    \\/     M anipulation  |                                                 |
\*---------------------------------------------------------------------------*/
FoamFile
{
    version     2.0;
    format      ascii;
    arch        "LSB;label=32;scalar=64";
    class       volScalarField;
    location    "0.5";
    object      p;
}
// * * * * * * * * * * * * * * * * * * * * * * * * * * * * * * * * * * * * * //

dimensions      [1 -1 -2 0 0 0 0];

internalField   nonuniform List<scalar> 
29678
(
14641.7
14494.5
14347.4
14200.2
14053.1
13905.9
13758.8
13611.6
13464.5
13317.3
13170.2
13023
12875.9
12728.7
12581.6
12434.4
12287.3
12140.2
11993
11845.9
11698.7
11551.6
11404.4
11257.3
11110.1
10963
10815.9
10668.7
10521.6
10374.4
10227.3
10080.1
9933
9785.85
9638.71
9491.57
9344.43
9197.29
9050.15
8903.01
8755.87
8608.73
8461.59
8314.45
8167.31
8020.17
7873.03
7725.89
7578.75
7431.62
7284.48
7137.34
6990.2
6843.06
6695.92
6548.79
6401.65
6254.51
6107.37
5960.23
5813.09
5665.95
5518.82
5371.68
5224.54
5077.4
4930.26
4783.12
4635.98
4488.84
4341.69
4194.55
4047.41
3900.27
3753.12
3605.98
3458.83
3311.69
3164.54
3017.39
2870.24
2723.1
2575.95
2428.8
2281.64
2134.49
1987.34
1840.19
1693.03
1545.87
1398.71
1251.55
1104.39
957.226
810.06
662.894
515.728
368.57
221.389
74.431
0.154004
-0.299582
-0.546866
-0.675546
-0.877716
-1.0398
-1.22633
-1.39883
-1.57851
-1.75158
14642.2
14495
14347.9
14200.7
14053.6
13906.4
13759.3
13612.1
13465
13317.8
13170.7
13023.6
12876.4
12729.3
12582.1
12435
12287.9
12140.7
11993.6
11846.4
11699.3
11552.2
11405
11257.9
11110.8
10963.6
10816.5
10669.4
10522.2
10375.1
10228
10080.9
9933.74
9786.61
9639.49
9492.36
9345.24
9198.11
9050.99
8903.87
8756.75
8609.63
8462.51
8315.39
8168.28
8021.16
7874.04
7726.93
7579.81
7432.69
7285.58
7138.46
6991.35
6844.24
6697.12
6550.01
6402.89
6255.78
6108.66
5961.55
5814.43
5667.32
5520.2
5373.09
5225.97
5078.85
4931.73
4784.61
4637.49
4490.37
4343.25
4196.12
4048.99
3901.86
3754.73
3607.6
3460.47
3313.33
3166.19
3019.05
2871.91
2724.76
2577.62
2430.47
2283.31
2136.16
1989
1841.83
1694.66
1547.48
1400.3
1253.12
1105.93
958.733
811.533
664.326
517.113
369.887
222.647
75.4541
0.662121
-0.297694
-0.537341
-0.670837
-0.871402
-1.03577
-1.22269
-1.39599
-1.57659
-1.7508
14642.6
14495.5
14348.4
14201.2
14054.1
13906.9
13759.8
13612.6
13465.5
13318.3
13171.2
13024.1
12876.9
12729.8
12582.7
12435.5
12288.4
12141.3
11994.1
11847
11699.9
11552.8
11405.6
11258.5
11111.4
10964.3
10817.2
10670
10522.9
10375.8
10228.7
10081.6
9934.48
9787.37
9640.26
9493.15
9346.04
9198.94
9051.84
8904.73
8757.63
8610.53
8463.44
8316.34
8169.24
8022.15
7875.05
7727.96
7580.86
7433.77
7286.68
7139.59
6992.5
6845.41
6698.32
6551.23
6404.14
6257.05
6109.96
5962.87
5815.78
5668.68
5521.59
5374.5
5227.4
5080.31
4933.21
4786.11
4639.01
4491.9
4344.8
4197.69
4050.58
3903.46
3756.35
3609.23
3462.1
3314.98
3167.85
3020.71
2873.57
2726.43
2579.28
2432.13
2284.98
2137.82
1990.64
1843.47
1696.28
1549.09
1401.89
1254.68
1107.47
960.244
813.009
665.764
518.511
371.235
223.987
76.6631
1.36974
-0.297582
-0.520258
-0.667775
-0.866658
-1.03239
-1.21921
-1.39313
-1.57432
-1.7501
14643.1
14496
14348.8
14201.7
14054.5
13907.4
13760.3
13613.1
13466
13318.9
13171.7
13024.6
12877.5
12730.3
12583.2
12436.1
12289
12141.8
11994.7
11847.6
11700.5
11553.4
11406.2
11259.1
11112
10964.9
10817.8
10670.7
10523.6
10376.5
10229.4
10082.3
9935.21
9788.12
9641.03
9493.94
9346.85
9199.76
9052.68
8905.6
8758.51
8611.44
8464.36
8317.28
8170.21
8023.13
7876.06
7728.99
7581.92
7434.85
7287.78
7140.71
6993.65
6846.58
6699.51
6552.45
6405.38
6258.32
6111.25
5964.19
5817.12
5670.05
5522.98
5375.91
5228.84
5081.76
4934.68
4787.61
4640.52
4493.44
4346.35
4199.26
4052.16
3905.06
3757.96
3610.85
3463.74
3316.62
3169.5
3022.37
2875.24
2728.1
2580.96
2433.8
2286.65
2139.48
1992.3
1845.11
1697.91
1550.7
1403.49
1256.26
1109.02
961.763
814.495
667.212
519.917
372.586
225.31
77.8509
1.98384
-0.294374
-0.507601
-0.663863
-0.860332
-1.0291
-1.21567
-1.39082
-1.57258
-1.74952
14643.6
14496.5
14349.3
14202.2
14055
13907.9
13760.8
13613.6
13466.5
13319.4
13172.2
13025.1
12878
12730.9
12583.7
12436.6
12289.5
12142.4
11995.3
11848.2
11701.1
11554
11406.8
11259.7
11112.7
10965.6
10818.5
10671.4
10524.3
10377.2
10230.1
10083
9935.95
9788.87
9641.8
9494.72
9347.65
9200.59
9053.52
8906.46
8759.39
8612.34
8465.28
8318.22
8171.17
8024.12
7877.07
7730.02
7582.97
7435.93
7288.88
7141.84
6994.79
6847.75
6700.71
6553.67
6406.63
6259.59
6112.55
5965.5
5818.46
5671.42
5524.37
5377.32
5230.27
5083.22
4936.16
4789.1
4642.04
4494.98
4347.91
4200.83
4053.75
3906.67
3759.58
3612.48
3465.38
3318.28
3171.16
3024.04
2876.91
2729.78
2582.63
2435.48
2288.32
2141.14
1993.96
1846.76
1699.55
1552.33
1405.09
1257.84
1110.58
963.296
815.995
668.674
521.338
373.952
226.645
79.072
2.60244
-0.291547
-0.497336
-0.660581
-0.85478
-1.02628
-1.21247
-1.38891
-1.57106
-1.74909
14644.1
14497
14349.8
14202.7
14055.5
13908.4
13761.3
13614.1
13467
13319.9
13172.7
13025.6
12878.5
12731.4
12584.3
12437.2
12290
12142.9
11995.8
11848.7
11701.6
11554.5
11407.4
11260.4
11113.3
10966.2
10819.1
10672
10525
10377.9
10230.8
10083.7
9936.68
9789.62
9642.56
9495.51
9348.45
9201.41
9054.36
8907.31
8760.27
8613.23
8466.2
8319.16
8172.13
8025.1
7878.07
7731.05
7584.02
7437
7289.98
7142.96
6995.94
6848.92
6701.91
6554.89
6407.87
6260.86
6113.84
5966.82
5819.8
5672.78
5525.76
5378.74
5231.71
5084.68
4937.65
4790.61
4643.57
4496.52
4349.47
4202.41
4055.35
3908.28
3761.2
3614.12
3467.03
3319.94
3172.83
3025.72
2878.59
2731.46
2584.32
2437.17
2290
2142.82
1995.63
1848.42
1701.2
1553.97
1406.72
1259.45
1112.16
964.847
817.513
670.155
522.779
375.34
227.998
80.3193
3.22611
-0.288714
-0.489349
-0.657516
-0.849759
-1.02368
-1.20952
-1.3872
-1.56971
-1.74871
14644.6
14497.4
14350.3
14203.1
14056
13908.9
13761.7
13614.6
13467.5
13320.4
13173.2
13026.1
12879
12731.9
12584.8
12437.7
12290.6
12143.5
11996.4
11849.3
11702.2
11555.1
11408
11261
11113.9
10966.8
10819.8
10672.7
10525.6
10378.6
10231.5
10084.5
9937.41
9790.37
9643.33
9496.29
9349.25
9202.22
9055.19
8908.17
8761.15
8614.13
8467.11
8320.1
8173.09
8026.08
7879.08
7732.07
7585.07
7438.07
7291.08
7144.08
6997.09
6850.09
6703.1
6556.11
6409.12
6262.13
6115.14
5968.14
5821.15
5674.15
5527.15
5380.15
5233.15
5086.14
4939.13
4792.11
4645.09
4498.07
4351.03
4203.99
4056.95
3909.9
3762.83
3615.77
3468.69
3321.6
3174.51
3027.4
2880.28
2733.16
2586.02
2438.86
2291.7
2144.51
1997.32
1850.1
1702.87
1555.63
1408.36
1261.07
1113.76
966.419
819.055
671.661
524.245
376.754
229.377
81.6004
3.86252
-0.286068
-0.482995
-0.654861
-0.845465
-1.02143
-1.20696
-1.38577
-1.56856
-1.74842
14645.1
14497.9
14350.8
14203.6
14056.5
13909.4
13762.2
13615.1
13468
13320.9
13173.7
13026.6
12879.5
12732.4
12585.3
12438.2
12291.1
12144
11997
11849.9
11702.8
11555.7
11408.6
11261.6
11114.5
10967.4
10820.4
10673.3
10526.3
10379.2
10232.2
10085.2
9938.14
9791.11
9644.09
9497.07
9350.05
9203.04
9056.03
8909.02
8762.02
8615.02
8468.02
8321.03
8174.04
8027.06
7880.08
7733.1
7586.12
7439.15
7292.17
7145.2
6998.23
6851.26
6704.3
6557.33
6410.37
6263.4
6116.43
5969.47
5822.5
5675.52
5528.55
5381.57
5234.59
5087.61
4940.62
4793.63
4646.63
4499.62
4352.61
4205.58
4058.56
3911.52
3764.47
3617.42
3470.35
3323.28
3176.19
3029.09
2881.99
2734.86
2587.73
2440.57
2293.4
2146.22
1999.02
1851.8
1704.56
1557.3
1410.02
1262.71
1115.38
968.018
820.625
673.197
525.743
378.202
230.79
82.9215
4.51671
-0.283838
-0.477725
-0.652517
-0.841785
-1.01944
-1.20472
-1.3845
-1.56756
-1.74816
14645.5
14498.4
14351.2
14204.1
14057
13909.8
13762.7
13615.6
13468.5
13321.4
13174.2
13027.1
12880
12732.9
12585.8
12438.7
12291.7
12144.6
11997.5
11850.4
11703.4
11556.3
11409.2
11262.2
11115.1
10968.1
10821
10674
10527
10379.9
10232.9
10085.9
9938.86
9791.85
9644.84
9497.84
9350.84
9203.84
9056.85
8909.87
8762.89
8615.91
8468.93
8321.96
8175
8028.03
7881.07
7734.12
7587.17
7440.21
7293.27
7146.32
6999.38
6852.43
6705.49
6558.55
6411.61
6264.67
6117.73
5970.79
5823.84
5676.9
5529.95
5383
5236.04
5089.08
4942.11
4795.14
4648.16
4501.18
4354.18
4207.18
4060.17
3913.15
3766.12
3619.08
3472.03
3324.97
3177.89
3030.8
2883.7
2736.58
2589.45
2442.3
2295.13
2147.95
2000.74
1853.52
1706.27
1559
1411.71
1264.39
1117.03
969.648
822.227
674.767
527.278
379.689
232.243
84.2888
5.19151
-0.281884
-0.47343
-0.650427
-0.838703
-1.01769
-1.2028
-1.38342
-1.56672
-1.74795
14646
14498.9
14351.7
14204.6
14057.4
13910.3
13763.2
13616.1
13469
13321.8
13174.7
13027.6
12880.5
12733.4
12586.4
12439.3
12292.2
12145.1
11998.1
11851
11703.9
11556.9
11409.8
11262.8
11115.7
10968.7
10821.7
10674.6
10527.6
10380.6
10233.6
10086.6
9939.58
9792.58
9645.59
9498.61
9351.63
9204.65
9057.68
8910.71
8763.75
8616.79
8469.84
8322.89
8175.95
8029.01
7882.07
7735.14
7588.21
7441.28
7294.36
7147.44
7000.52
6853.6
6706.69
6559.77
6412.86
6265.94
6119.03
5972.11
5825.2
5678.28
5531.35
5384.43
5237.49
5090.56
4943.61
4796.67
4649.71
4502.74
4355.77
4208.79
4061.8
3914.79
3767.78
3620.75
3473.72
3326.66
3179.6
3032.52
2885.43
2738.32
2591.19
2444.04
2296.88
2149.69
2002.49
1855.26
1708.01
1560.73
1413.42
1266.09
1118.72
971.312
823.867
676.377
528.855
381.221
233.742
85.7082
5.89001
-0.280142
-0.469736
-0.648715
-0.836152
-1.01612
-1.20118
-1.38247
-1.56605
-1.74776
14646.5
14499.3
14352.2
14205
14057.9
13910.8
13763.7
13616.5
13469.4
13322.3
13175.2
13028.1
12881
12734
12586.9
12439.8
12292.7
12145.7
11998.6
11851.5
11704.5
11557.4
11410.4
11263.4
11116.3
10969.3
10822.3
10675.3
10528.3
10381.3
10234.3
10087.3
9940.29
9793.31
9646.34
9499.37
9352.41
9205.45
9058.5
8911.55
8764.61
8617.67
8470.74
8323.81
8176.89
8029.97
7883.06
7736.15
7589.25
7442.34
7295.45
7148.55
7001.66
6854.77
6707.88
6560.99
6414.1
6267.22
6120.33
5973.44
5826.55
5679.65
5532.76
5385.86
5238.95
5092.04
4945.12
4798.2
4651.26
4504.32
4357.37
4210.41
4063.43
3916.45
3769.45
3622.44
3475.42
3328.38
3181.33
3034.26
2887.17
2740.07
2592.94
2445.8
2298.64
2151.46
2004.25
1857.02
1709.77
1562.48
1415.17
1267.82
1120.44
973.015
825.548
678.032
530.48
382.804
235.293
87.1862
6.61551
-0.278578
-0.466616
-0.647322
-0.833776
-1.01497
-1.19983
-1.38163
-1.56558
-1.74755
14646.9
14499.8
14352.6
14205.5
14058.4
13911.3
13764.1
13617
13469.9
13322.8
13175.7
13028.6
12881.5
12734.5
12587.4
12440.3
12293.2
12146.2
11999.1
11852.1
11705
11558
11411
11264
11116.9
10969.9
10822.9
10675.9
10528.9
10381.9
10234.9
10088
9941
9794.04
9647.08
9500.13
9353.18
9206.24
9059.31
8912.38
8765.46
8618.55
8471.64
8324.73
8177.83
8030.94
7884.05
7737.16
7590.28
7443.4
7296.53
7149.66
7002.8
6855.93
6709.07
6562.21
6415.35
6268.49
6121.63
5974.77
5827.9
5681.04
5534.17
5387.29
5240.41
5093.53
4946.63
4799.73
4652.82
4505.9
4358.97
4212.03
4065.08
3918.11
3771.13
3624.14
3477.13
3330.11
3183.07
3036.01
2888.93
2741.84
2594.72
2447.58
2300.43
2153.25
2006.04
1858.81
1711.56
1564.27
1416.95
1269.59
1122.2
974.761
827.275
679.736
532.158
384.444
236.904
88.7299
7.37165
-0.277159
-0.464026
-0.646134
-0.831772
-1.01407
-1.19855
-1.38114
-1.5649
-1.74758
14647.4
14500.2
14353.1
14206
14058.8
13911.7
13764.6
13617.5
13470.4
13323.3
13176.2
13029.1
12882
12734.9
12587.9
12440.8
12293.8
12146.7
11999.7
11852.6
11705.6
11558.6
11411.5
11264.5
11117.5
10970.5
10823.5
10676.5
10529.6
10382.6
10235.6
10088.7
9941.7
9794.75
9647.81
9500.88
9353.95
9207.03
9060.12
8913.21
8766.31
8619.41
8472.52
8325.64
8178.77
8031.89
7885.03
7738.17
7591.31
7444.46
7297.61
7150.77
7003.93
6857.09
6710.26
6563.43
6416.59
6269.76
6122.93
5976.1
5829.26
5682.42
5535.58
5388.73
5241.88
5095.02
4948.16
4801.28
4654.4
4507.5
4360.59
4213.68
4066.74
3919.8
3772.84
3625.86
3478.87
3331.86
3184.83
3037.78
2890.71
2743.63
2596.52
2449.39
2302.23
2155.06
2007.86
1860.63
1713.37
1566.09
1418.76
1271.4
1124
976.552
829.052
681.495
533.895
386.147
238.581
90.3472
8.16242
-0.275869
-0.461927
-0.645101
-0.830144
-1.01331
-1.19749
-1.38071
-1.56438
-1.74758
14647.8
14500.7
14353.6
14206.4
14059.3
13912.2
13765.1
13618
13470.9
13323.8
13176.7
13029.6
12882.5
12735.4
12588.4
12441.3
12294.3
12147.2
12000.2
11853.2
11706.1
11559.1
11412.1
11265.1
11118.1
10971.1
10824.1
10677.2
10530.2
10383.2
10236.3
10089.3
9942.4
9795.47
9648.54
9501.62
9354.72
9207.81
9060.92
8914.03
8767.15
8620.28
8473.41
8326.55
8179.69
8032.85
7886
7739.17
7592.34
7445.51
7298.69
7151.87
7005.06
6858.25
6711.45
6564.64
6417.84
6271.04
6124.23
5977.43
5830.62
5683.81
5537
5390.18
5243.36
5096.53
4949.69
4802.84
4655.98
4509.11
4362.23
4215.33
4068.42
3921.49
3774.55
3627.59
3480.62
3333.62
3186.6
3039.57
2892.51
2745.43
2598.33
2451.21
2304.07
2156.9
2009.7
1862.48
1715.22
1567.94
1420.61
1273.25
1125.85
978.393
830.884
683.314
535.697
387.92
240.331
92.0465
8.9922
-0.274706
-0.460282
-0.644199
-0.828886
-1.01266
-1.1967
-1.38033
-1.56402
-1.74755
14648.3
14501.1
14354
14206.9
14059.7
13912.6
13765.5
13618.4
13471.3
13324.2
13177.1
13030.1
12883
12735.9
12588.9
12441.8
12294.8
12147.7
12000.7
11853.7
11706.7
11559.7
11412.7
11265.7
11118.7
10971.7
10824.7
10677.8
10530.8
10383.9
10236.9
10090
9943.08
9796.17
9649.26
9502.36
9355.47
9208.59
9061.71
8914.84
8767.98
8621.13
8474.29
8327.45
8180.62
8033.79
7886.97
7740.16
7593.36
7446.56
7299.77
7152.98
7006.19
6859.41
6712.63
6565.86
6419.08
6272.31
6125.54
5978.76
5831.99
5685.21
5538.43
5391.64
5244.84
5098.04
4951.23
4804.41
4657.58
4510.73
4363.87
4217
4070.11
3923.21
3776.28
3629.34
3482.38
3335.4
3188.4
3041.38
2894.33
2747.26
2600.17
2453.06
2305.92
2158.76
2011.57
1864.35
1717.1
1569.82
1422.5
1275.14
1127.74
980.287
832.774
685.196
537.569
389.77
242.163
93.8369
9.86578
-0.273682
-0.459051
-0.643426
-0.827977
-1.01209
-1.19614
-1.38
-1.56379
-1.7475
14648.7
14501.6
14354.4
14207.3
14060.2
13913.1
13766
13618.9
13471.8
13324.7
13177.6
13030.5
12883.5
12736.4
12589.3
12442.3
12295.3
12148.2
12001.2
11854.2
11707.2
11560.2
11413.2
11266.2
11119.3
10972.3
10825.3
10678.4
10531.4
10384.5
10237.6
10090.7
9943.76
9796.86
9649.97
9503.09
9356.22
9209.35
9062.5
8915.65
8768.81
8621.98
8475.15
8328.34
8181.53
8034.73
7887.94
7741.15
7594.37
7447.6
7300.83
7154.07
7007.32
6860.57
6713.82
6567.07
6420.33
6273.59
6126.84
5980.1
5833.36
5686.61
5539.86
5393.1
5246.33
5099.56
4952.78
4805.99
4659.18
4512.36
4365.53
4218.68
4071.82
3924.94
3778.03
3631.11
3484.17
3337.2
3190.21
3043.2
2896.17
2749.11
2602.03
2454.93
2307.8
2160.64
2013.46
1866.25
1719.01
1571.74
1424.43
1277.08
1129.68
982.235
834.726
687.147
539.518
391.704
244.085
95.7283
10.7884
-0.272828
-0.45819
-0.642814
-0.827371
-1.01165
-1.19578
-1.37976
-1.56364
-1.74747
14649.2
14502
14354.9
14207.7
14060.6
13913.5
13766.4
13619.3
13472.2
13325.1
13178
13031
12883.9
12736.9
12589.8
12442.8
12295.8
12148.7
12001.7
11854.7
11707.7
11560.7
11413.8
11266.8
11119.8
10972.9
10825.9
10679
10532.1
10385.1
10238.2
10091.3
9944.43
9797.55
9650.68
9503.81
9356.96
9210.11
9063.27
8916.45
8769.63
8622.82
8476.02
8329.22
8182.44
8035.66
7888.9
7742.14
7595.38
7448.64
7301.9
7155.17
7008.44
6861.72
6715
6568.29
6421.57
6274.86
6128.15
5981.44
5834.73
5688.01
5541.29
5394.56
5247.83
5101.09
4954.34
4807.58
4660.8
4514.01
4367.21
4220.38
4073.54
3926.68
3779.8
3632.9
3485.97
3339.02
3192.05
3045.05
2898.03
2750.99
2603.92
2456.82
2309.7
2162.56
2015.39
1868.19
1720.96
1573.7
1426.4
1279.06
1131.68
984.241
836.743
689.171
541.548
393.729
246.104
97.7313
11.7658
-0.272395
-0.457665
-0.642422
-0.827021
-1.01139
-1.19557
-1.37962
-1.56356
-1.74745
14649.6
14502.4
14355.3
14208.2
14061
13913.9
13766.8
13619.7
13472.6
13325.6
13178.5
13031.4
12884.4
12737.3
12590.3
12443.3
12296.2
12149.2
12002.2
11855.2
11708.2
11561.3
11414.3
11267.3
11120.4
10973.4
10826.5
10679.6
10532.7
10385.8
10238.9
10092
9945.09
9798.23
9651.37
9504.52
9357.69
9210.86
9064.04
8917.23
8770.44
8623.65
8476.87
8330.1
8183.34
8036.59
7889.84
7743.11
7596.38
7449.67
7302.96
7156.25
7009.56
6862.87
6716.18
6569.5
6422.81
6276.14
6129.46
5982.78
5836.1
5689.42
5542.73
5396.04
5249.34
5102.63
4955.91
4809.18
4662.44
4515.68
4368.9
4222.1
4075.29
3928.45
3781.59
3634.71
3487.8
3340.87
3193.91
3046.93
2899.92
2752.88
2605.82
2458.74
2311.63
2164.49
2017.33
1870.15
1722.93
1575.69
1428.41
1281.09
1133.72
986.305
838.826
691.272
543.665
395.852
248.23
99.8571
12.8043
-0.272019
-0.457443
-0.642251
-0.826899
-1.01131
-1.19552
-1.37959
-1.56355
-1.74744
14650
14502.9
14355.7
14208.6
14061.5
13914.4
13767.3
13620.2
13473.1
13326
13178.9
13031.9
12884.8
12737.8
12590.8
12443.7
12296.7
12149.7
12002.7
11855.7
11708.7
11561.8
11414.8
11267.9
11120.9
10974
10827.1
10680.2
10533.3
10386.4
10239.5
10092.6
9945.74
9798.89
9652.05
9505.22
9358.41
9211.6
9064.8
8918.01
8771.23
8624.47
8477.71
8330.96
8184.23
8037.5
7890.78
7744.08
7597.38
7450.69
7304.01
7157.34
7010.67
6864.01
6717.35
6570.7
6424.05
6277.41
6130.77
5984.12
5837.48
5690.83
5544.18
5397.52
5250.85
5104.18
4957.49
4810.8
4664.08
4517.35
4370.61
4223.84
4077.05
3930.24
3783.4
3636.54
3489.65
3342.74
3195.79
3048.82
2901.83
2754.8
2607.75
2460.68
2313.58
2166.45
2019.31
1872.13
1724.94
1577.71
1430.45
1283.16
1135.82
988.428
840.978
693.452
545.874
398.08
250.473
102.118
13.9107
-0.271935
-0.457536
-0.642337
-0.827014
-1.01143
-1.19563
-1.37968
-1.5636
-1.74747
14650.4
14503.3
14356.1
14209
14061.9
13914.8
13767.7
13620.6
13473.5
13326.4
13179.4
13032.3
12885.3
12738.2
12591.2
12444.2
12297.2
12150.2
12003.2
11856.2
11709.2
11562.3
11415.3
11268.4
11121.5
10974.5
10827.6
10680.7
10533.8
10387
10240.1
10093.2
9946.39
9799.55
9652.73
9505.92
9359.11
9212.32
9065.55
8918.78
8772.02
8625.28
8478.54
8331.82
8185.11
8038.41
7891.72
7745.04
7598.37
7451.71
7305.05
7158.41
7011.77
6865.15
6718.52
6571.9
6425.29
6278.68
6132.07
5985.46
5838.85
5692.24
5545.63
5399.01
5252.38
5105.74
4959.09
4812.43
4665.75
4519.05
4372.33
4225.6
4078.84
3932.05
3785.24
3638.4
3491.53
3344.63
3197.7
3050.74
2903.76
2756.75
2609.71
2462.64
2315.55
2168.44
2021.3
1874.15
1726.97
1579.76
1432.53
1285.26
1137.96
990.609
843.199
695.713
548.178
400.419
252.84
104.526
15.0924
-0.272173
-0.457962
-0.642704
-0.827378
-1.01175
-1.19591
-1.37988
-1.56374
-1.74751
14650.8
14503.7
14356.5
14209.4
14062.3
13915.2
13768.1
13621
13473.9
13326.8
13179.8
13032.7
12885.7
12738.7
12591.6
12444.6
12297.6
12150.6
12003.7
11856.7
11709.7
11562.8
11415.8
11268.9
11122
10975.1
10828.2
10681.3
10534.4
10387.5
10240.7
10093.8
9947.02
9800.2
9653.39
9506.59
9359.81
9213.04
9066.28
8919.53
8772.8
8626.08
8479.37
8332.67
8185.98
8039.3
7892.64
7745.99
7599.34
7452.71
7306.09
7159.48
7012.87
6866.28
6719.69
6573.1
6426.52
6279.95
6133.38
5986.81
5840.24
5693.66
5547.08
5400.5
5253.91
5107.31
4960.7
4814.07
4667.43
4520.77
4374.08
4227.38
4080.65
3933.89
3787.1
3640.28
3493.43
3346.55
3199.64
3052.69
2905.72
2758.71
2611.68
2464.63
2317.54
2170.44
2023.32
1876.18
1729.02
1581.84
1434.64
1287.41
1140.15
992.844
845.486
698.056
550.58
402.875
255.341
107.094
16.3574
-0.272756
-0.458749
-0.643374
-0.828012
-1.01231
-1.19636
-1.38022
-1.56394
-1.74759
14651.2
14504.1
14356.9
14209.8
14062.7
13915.6
13768.5
13621.4
13474.3
13327.2
13180.2
13033.1
12886.1
12739.1
12592.1
12445.1
12298.1
12151.1
12004.1
11857.1
11710.2
11563.3
11416.3
11269.4
11122.5
10975.6
10828.7
10681.8
10535
10388.1
10241.3
10094.4
9947.63
9800.83
9654.04
9507.26
9360.5
9213.74
9067
8920.28
8773.56
8626.86
8480.17
8333.5
8186.84
8040.19
7893.55
7746.92
7600.31
7453.71
7307.12
7160.54
7013.96
6867.4
6720.85
6574.3
6427.75
6281.22
6134.68
5988.15
5841.62
5695.08
5548.55
5402
5255.45
5108.89
4962.32
4815.73
4669.13
4522.5
4375.85
4229.18
4082.48
3935.75
3788.99
3642.19
3495.36
3348.5
3201.6
3054.67
2907.7
2760.71
2613.68
2466.63
2319.56
2172.46
2025.35
1878.23
1731.09
1583.94
1436.77
1289.58
1142.37
995.128
847.838
700.479
553.082
405.452
257.984
109.834
17.7143
-0.273724
-0.459934
-0.644377
-0.828941
-1.0131
-1.197
-1.38069
-1.56423
-1.74769
14651.6
14504.4
14357.3
14210.2
14063.1
13916
13768.9
13621.8
13474.7
13327.6
13180.6
13033.6
12886.5
12739.5
12592.5
12445.5
12298.5
12151.5
12004.6
11857.6
11710.7
11563.7
11416.8
11269.9
11123
10976.1
10829.2
10682.4
10535.5
10388.7
10241.9
10095
9948.24
9801.45
9654.68
9507.92
9361.17
9214.44
9067.72
8921.01
8774.32
8627.64
8480.97
8334.32
8187.68
8041.06
7894.45
7747.85
7601.27
7454.69
7308.13
7161.58
7015.05
6868.52
6722
6575.48
6428.98
6282.48
6135.98
5989.49
5843
5696.51
5550.01
5403.51
5257.01
5110.49
4963.96
4817.41
4670.85
4524.26
4377.65
4231.01
4084.34
3937.64
3790.91
3644.14
3497.33
3350.48
3203.6
3056.68
2909.72
2762.73
2615.71
2468.66
2321.59
2174.5
2027.4
1880.29
1733.17
1586.04
1438.92
1291.78
1144.63
997.454
850.246
702.978
555.68
408.153
260.776
112.76
19.1721
-0.275135
-0.461559
-0.645749
-0.830194
-1.01417
-1.19784
-1.3813
-1.56461
-1.74783
14651.9
14504.8
14357.7
14210.5
14063.4
13916.3
13769.2
13622.2
13475.1
13328
13181
13034
12886.9
12739.9
12592.9
12445.9
12298.9
12152
12005
11858
11711.1
11564.2
11417.3
11270.4
11123.5
10976.6
10829.7
10682.9
10536.1
10389.2
10242.4
10095.6
9948.83
9802.06
9655.3
9508.56
9361.83
9215.11
9068.41
8921.73
8775.05
8628.4
8481.75
8335.13
8188.51
8041.92
7895.33
7748.76
7602.21
7455.67
7309.14
7162.62
7016.12
6869.62
6723.14
6576.66
6430.2
6283.74
6137.29
5990.84
5844.39
5697.94
5551.49
5405.03
5258.57
5112.1
4965.61
4819.11
4672.58
4526.04
4379.47
4232.87
4086.24
3939.57
3792.87
3646.12
3499.33
3352.5
3205.63
3058.72
2911.76
2764.78
2617.75
2470.71
2323.63
2176.55
2029.45
1882.35
1735.25
1588.16
1441.07
1293.98
1146.9
999.811
852.701
705.542
558.372
410.978
263.722
115.882
20.7405
-0.277051
-0.463678
-0.647532
-0.831807
-1.01552
-1.19891
-1.38207
-1.56507
-1.74799
14652.3
14505.2
14358
14210.9
14063.8
13916.7
13769.6
13622.5
13475.5
13328.4
13181.4
13034.3
12887.3
12740.3
12593.3
12446.3
12299.3
12152.4
12005.4
11858.5
11711.6
11564.6
11417.7
11270.8
11124
10977.1
10830.2
10683.4
10536.6
10389.8
10243
10096.2
9949.41
9802.65
9655.91
9509.18
9362.47
9215.78
9069.09
8922.43
8775.78
8629.14
8482.52
8335.92
8189.33
8042.76
7896.21
7749.66
7603.14
7456.63
7310.13
7163.65
7017.18
6870.72
6724.27
6577.84
6431.41
6285
6138.59
5992.18
5845.78
5699.38
5552.97
5406.56
5260.15
5113.72
4967.28
4820.82
4674.34
4527.84
4381.32
4234.76
4088.17
3941.53
3794.86
3648.14
3501.38
3354.56
3207.7
3060.8
2913.84
2766.85
2619.83
2472.77
2325.69
2178.6
2031.5
1884.41
1737.32
1590.26
1443.21
1296.18
1149.18
1002.18
855.189
708.165
561.149
413.922
266.826
119.209
22.4291
-0.279551
-0.466356
-0.649776
-0.833827
-1.0172
-1.20024
-1.38303
-1.56564
-1.74818
14652.7
14505.5
14358.4
14211.3
14064.1
13917
13770
13622.9
13475.8
13328.8
13181.7
13034.7
12887.7
12740.7
12593.7
12446.7
12299.7
12152.8
12005.8
11858.9
11712
11565.1
11418.2
11271.3
11124.4
10977.6
10830.7
10683.9
10537.1
10390.3
10243.5
10096.7
9949.97
9803.23
9656.51
9509.8
9363.1
9216.42
9069.76
8923.11
8776.48
8629.87
8483.27
8336.7
8190.13
8043.59
7897.06
7750.55
7604.05
7457.57
7311.11
7164.66
7018.23
6871.81
6725.4
6579.01
6432.62
6286.25
6139.88
5993.52
5847.16
5700.81
5554.45
5408.09
5261.73
5115.35
4968.96
4822.55
4676.13
4529.68
4383.2
4236.68
4090.13
3943.54
3796.89
3650.2
3503.46
3356.67
3209.82
3062.91
2915.96
2768.96
2621.92
2474.85
2327.76
2180.66
2033.55
1886.45
1739.38
1592.33
1445.32
1298.36
1151.44
1004.55
857.69
710.824
563.994
416.976
270.086
122.747
24.2477
-0.282724
-0.469651
-0.652494
-0.836241
-1.01919
-1.20179
-1.38414
-1.56632
-1.7484
14653
14505.9
14358.7
14211.6
14064.5
13917.4
13770.3
13623.2
13476.2
13329.1
13182.1
13035.1
12888.1
12741.1
12594.1
12447.1
12300.1
12153.2
12006.2
11859.3
11712.4
11565.5
11418.6
11271.7
11124.9
10978
10831.2
10684.4
10537.6
10390.8
10244
10097.3
9950.52
9803.79
9657.08
9510.39
9363.71
9217.05
9070.41
8923.78
8777.18
8630.58
8484.01
8337.46
8190.92
8044.4
7897.9
7751.42
7604.95
7458.5
7312.07
7165.66
7019.27
6872.88
6726.51
6580.16
6433.82
6287.48
6141.16
5994.85
5848.54
5702.23
5555.93
5409.63
5263.31
5117
4970.66
4824.3
4677.93
4531.54
4385.11
4238.64
4092.14
3945.58
3798.98
3652.32
3505.6
3358.82
3211.98
3065.08
2918.12
2771.11
2624.05
2476.96
2329.84
2182.71
2035.58
1888.47
1741.39
1594.36
1447.39
1300.49
1153.65
1006.88
860.177
713.496
566.888
420.125
273.494
126.498
26.2058
-0.286685
-0.4737
-0.655865
-0.83921
-1.02161
-1.20368
-1.3855
-1.56714
-1.74868
14653.3
14506.2
14359.1
14211.9
14064.8
13917.7
13770.6
13623.6
13476.5
13329.5
13182.4
13035.4
12888.4
12741.4
12594.4
12447.5
12300.5
12153.6
12006.6
11859.7
11712.8
11565.9
11419
11272.2
11125.3
10978.5
10831.7
10684.8
10538.1
10391.3
10244.5
10097.8
9951.05
9804.34
9657.65
9510.97
9364.31
9217.67
9071.04
8924.44
8777.85
8631.28
8484.73
8338.2
8191.69
8045.2
7898.72
7752.27
7605.83
7459.42
7313.02
7166.65
7020.29
6873.94
6727.61
6581.3
6435
6288.71
6142.44
5996.17
5849.92
5703.67
5557.42
5411.17
5264.92
5118.65
4972.37
4826.08
4679.76
4533.43
4387.05
4240.64
4094.18
3947.68
3801.11
3654.49
3507.79
3361.03
3214.2
3067.3
2920.33
2773.29
2626.21
2479.08
2331.92
2184.75
2037.59
1890.45
1743.36
1596.33
1449.39
1302.54
1155.79
1009.16
862.618
716.148
569.799
423.34
277.034
130.454
28.3115
-0.29148
-0.478381
-0.659747
-0.842635
-1.02436
-1.20581
-1.38701
-1.56803
-1.74896
14653.6
14506.5
14359.4
14212.2
14065.1
13918
13771
13623.9
13476.8
13329.8
13182.8
13035.8
12888.8
12741.8
12594.8
12447.8
12300.9
12153.9
12007
11860.1
11713.2
11566.3
11419.4
11272.6
11125.7
10978.9
10832.1
10685.3
10538.5
10391.8
10245
10098.3
9951.57
9804.87
9658.19
9511.53
9364.89
9218.26
9071.66
8925.07
8778.5
8631.96
8485.43
8338.92
8192.44
8045.97
7899.53
7753.1
7606.7
7460.32
7313.96
7167.61
7021.29
6874.98
6728.69
6582.42
6436.17
6289.93
6143.71
5997.49
5851.29
5705.1
5558.91
5412.71
5266.52
5120.32
4974.1
4827.87
4681.62
4535.34
4389.03
4242.68
4096.28
3949.83
3803.31
3656.72
3510.05
3363.31
3216.49
3069.58
2922.59
2775.53
2628.4
2481.22
2334.01
2186.78
2039.56
1892.38
1745.25
1598.21
1451.29
1304.48
1157.83
1011.32
864.968
718.734
572.682
426.583
280.677
134.599
30.5671
-0.297428
-0.484273
-0.66437
-0.84666
-1.02755
-1.20825
-1.38873
-1.56905
-1.7493
14653.9
14506.8
14359.7
14212.6
14065.4
13918.4
13771.3
13624.2
13477.2
13330.1
13183.1
13036.1
12889.1
12742.1
12595.1
12448.2
12301.2
12154.3
12007.4
11860.5
11713.6
11566.7
11419.8
11273
11126.1
10979.3
10832.5
10685.7
10539
10392.2
10245.5
10098.8
9952.07
9805.38
9658.72
9512.08
9365.45
9218.84
9072.25
8925.69
8779.14
8632.61
8486.11
8339.63
8193.17
8046.73
7900.31
7753.91
7607.54
7461.19
7314.86
7168.55
7022.27
6876
6729.76
6583.53
6437.32
6291.14
6144.96
5998.8
5852.65
5706.52
5560.39
5414.26
5268.13
5122
4975.85
4829.68
4683.5
4537.3
4391.06
4244.77
4098.43
3952.03
3805.57
3659.02
3512.39
3365.67
3218.85
3071.93
2924.92
2777.82
2630.64
2483.39
2336.1
2188.8
2041.5
1894.24
1747.05
1599.98
1453.05
1306.28
1159.71
1013.33
867.174
721.197
575.477
429.793
284.365
138.907
32.9744
-0.304323
-0.49067
-0.669563
-0.851127
-1.03102
-1.21088
-1.39056
-1.57012
-1.74964
14654.2
14507.1
14360
14212.8
14065.7
13918.7
13771.6
13624.5
13477.5
13330.4
13183.4
13036.4
12889.4
12742.4
12595.4
12448.5
12301.5
12154.6
12007.7
11860.8
11713.9
11567.1
11420.2
11273.4
11126.5
10979.7
10832.9
10686.2
10539.4
10392.7
10245.9
10099.2
9952.55
9805.88
9659.23
9512.6
9365.99
9219.4
9072.83
8926.28
8779.75
8633.25
8486.77
8340.31
8193.87
8047.46
7901.07
7754.71
7608.37
7462.05
7315.75
7169.48
7023.23
6877
6730.8
6584.62
6438.46
6292.32
6146.2
6000.1
5854.01
5707.93
5561.87
5415.81
5269.75
5123.69
4977.61
4831.51
4685.41
4539.28
4393.12
4246.91
4100.64
3954.31
3807.9
3661.4
3514.81
3368.11
3221.3
3074.38
2927.34
2780.19
2632.94
2485.6
2338.21
2190.79
2043.38
1896.02
1748.74
1601.6
1454.64
1307.88
1161.37
1015.13
869.168
723.465
578.113
432.891
288.007
143.323
35.5213
-0.312777
-0.498385
-0.67548
-0.856244
-1.03488
-1.21381
-1.39259
-1.57131
-1.75003
14654.5
14507.4
14360.2
14213.1
14066
13918.9
13771.9
13624.8
13477.8
13330.7
13183.7
13036.7
12889.7
12742.7
12595.8
12448.8
12301.9
12154.9
12008
11861.1
11714.3
11567.4
11420.6
11273.7
11126.9
10980.1
10833.3
10686.6
10539.8
10393.1
10246.4
10099.7
9953.01
9806.35
9659.72
9513.1
9366.51
9219.94
9073.38
8926.85
8780.35
8633.87
8487.41
8340.97
8194.56
8048.17
7901.81
7755.47
7609.16
7462.87
7316.61
7170.38
7024.17
6877.98
6731.82
6585.69
6439.58
6293.49
6147.43
6001.38
5855.35
5709.34
5563.34
5417.35
5271.37
5125.38
4979.38
4833.36
4687.35
4541.3
4395.22
4249.09
4102.91
3956.65
3810.31
3663.88
3517.33
3370.66
3223.86
3076.93
2929.85
2782.64
2635.31
2487.86
2340.33
2192.77
2045.21
1897.7
1750.29
1603.04
1456.01
1309.24
1162.77
1016.64
870.875
725.453
580.492
435.777
291.491
147.648
38.1778
-0.322164
-0.506668
-0.68189
-0.861708
-1.03887
-1.21683
-1.39465
-1.5725
-1.7504
14654.8
14507.6
14360.5
14213.4
14066.3
13919.2
13772.1
13625.1
13478
13331
13184
13037
12890
12743
12596.1
12449.1
12302.2
12155.3
12008.4
11861.5
11714.6
11567.7
11420.9
11274.1
11127.3
10980.5
10833.7
10686.9
10540.2
10393.5
10246.8
10100.1
9953.45
9806.81
9660.19
9513.59
9367.01
9220.45
9073.92
8927.41
8780.92
8634.46
8488.02
8341.6
8195.22
8048.86
7902.53
7756.22
7609.93
7463.68
7317.45
7171.25
7025.08
6878.94
6732.82
6586.73
6440.67
6294.64
6148.63
6002.64
5856.68
5710.74
5564.81
5418.89
5272.98
5127.08
4981.16
4835.23
4689.3
4543.36
4397.37
4251.34
4105.25
3959.08
3812.82
3666.45
3519.96
3373.34
3226.55
3079.61
2932.49
2785.21
2637.77
2490.19
2342.49
2194.74
2046.98
1899.27
1751.67
1604.26
1457.11
1310.28
1163.83
1017.79
872.202
727.06
582.51
438.336
294.717
151.68
40.901
-0.333033
-0.516082
-0.688819
-0.867683
-1.04297
-1.2201
-1.39683
-1.57377
-1.75081
14655
14507.9
14360.8
14213.7
14066.5
13919.5
13772.4
13625.3
13478.3
13331.3
13184.3
13037.2
12890.3
12743.3
12596.3
12449.4
12302.5