/*--------------------------------*- C++ -*----------------------------------*\
| =========                 |                                                 |
| \\      /  F ield         | OpenFOAM: The Open Source CFD Toolbox           |
|  \\    /   O peration     | Version:  v2106                                 |
|   \\  /    A nd           | Website:  www.openfoam.com                      |
|    \\/     M anipulation  |                                                 |
\*---------------------------------------------------------------------------*/
FoamFile
{
    version     2.0;
    format      ascii;
    arch        "LSB;label=32;scalar=64";
    class       volScalarField;
    location    "0.5";
    object      p_rgh;
}
// * * * * * * * * * * * * * * * * * * * * * * * * * * * * * * * * * * * * * //

dimensions      [1 -1 -2 0 0 0 0];

internalField   nonuniform List<scalar> 
29678
(
0.245121
0.245468
0.246115
0.246922
0.247878
0.249028
0.250402
0.252014
0.253863
0.25595
0.258273
0.260832
0.263627
0.26666
0.269933
0.273449
0.27721
0.28122
0.285479
0.289989
0.294751
0.299765
0.305031
0.31055
0.316322
0.322349
0.328632
0.335173
0.341973
0.349033
0.356352
0.36393
0.371763
0.37985
0.388187
0.396771
0.405601
0.414674
0.423987
0.433537
0.44332
0.45333
0.463558
0.473994
0.484626
0.495442
0.506427
0.517566
0.528846
0.540251
0.551767
0.563377
0.575064
0.58681
0.598593
0.610389
0.622173
0.633917
0.645593
0.657171
0.668619
0.679908
0.691006
0.70188
0.712497
0.722821
0.732817
0.742447
0.751674
0.760461
0.768775
0.776583
0.783855
0.790564
0.796683
0.802184
0.807044
0.811231
0.814719
0.817478
0.819484
0.820722
0.821188
0.820901
0.819919
0.818453
0.816974
0.814227
0.808461
0.799739
0.78915
0.77774
0.76505
0.750862
0.735298
0.718833
0.702707
0.695446
0.663864
0.855958
0.669498
-0.0236761
-0.0870224
-0.0317644
-0.0499976
-0.0281418
-0.0307404
-0.0192984
-0.0150408
-0.00417811
0.734271
0.734855
0.735971
0.737675
0.740151
0.743454
0.747546
0.75238
0.75793
0.764184
0.77114
0.778798
0.787161
0.796235
0.806027
0.816547
0.827801
0.839798
0.852543
0.86604
0.88029
0.895297
0.911061
0.927584
0.944869
0.962921
0.981744
1.00134
1.02172
1.04289
1.06483
1.08756
1.11106
1.13532
1.16035
1.18613
1.21266
1.23993
1.26793
1.29665
1.32609
1.35623
1.38704
1.4185
1.45056
1.4832
1.51638
1.55004
1.58416
1.61869
1.65359
1.68881
1.7243
1.76
1.79586
1.8318
1.86775
1.90363
1.93935
1.97483
2.00997
2.04468
2.07887
2.11243
2.14527
2.17727
2.20833
2.23833
2.26716
2.29469
2.32084
2.34549
2.36854
2.38991
2.40951
2.42723
2.443
2.45671
2.46825
2.47753
2.48443
2.48888
2.4908
2.49016
2.48709
2.48171
2.47202
2.4565
2.43579
2.40927
2.3779
2.34293
2.30334
2.25844
2.20784
2.15109
2.08792
2.0122
1.92239
1.87914
1.68589
-0.0217873
-0.0774971
-0.0270557
-0.0436833
-0.0241116
-0.0270918
-0.0164562
-0.0131189
-0.00339135
1.22263
1.22351
1.22522
1.22798
1.2321
1.23764
1.24449
1.25256
1.26182
1.27224
1.28383
1.29658
1.31051
1.32562
1.34194
1.35946
1.37821
1.39819
1.41942
1.4419
1.46564
1.49063
1.51689
1.54442
1.57321
1.60328
1.63464
1.6673
1.70125
1.73652
1.77309
1.81096
1.85012
1.89056
1.93228
1.97526
2.01948
2.06495
2.11164
2.15955
2.20865
2.25891
2.3103
2.36277
2.41627
2.47073
2.52609
2.58228
2.63925
2.6969
2.75519
2.81402
2.87332
2.93298
2.99291
3.053
3.11311
3.17311
3.23287
3.29224
3.35105
3.40917
3.46642
3.52264
3.57765
3.63128
3.68334
3.73363
3.78197
3.82818
3.87207
3.91348
3.95224
3.98821
4.02122
4.0511
4.0777
4.10087
4.1204
4.13613
4.14787
4.15545
4.15871
4.15759
4.15219
4.14054
4.11981
4.09134
4.05699
4.01542
3.96615
3.9091
3.84358
3.76883
3.68424
3.58914
3.4856
3.35978
3.26239
3.08815
3.01098
-0.0216756
-0.0604145
-0.0239942
-0.038939
-0.0207381
-0.023617
-0.0135942
-0.0108533
-0.00269158
1.7098
1.71098
1.71333
1.71715
1.72292
1.73069
1.7403
1.7516
1.76456
1.77915
1.79536
1.8132
1.83269
1.85384
1.87666
1.90118
1.92741
1.95538
1.98508
2.01654
2.04975
2.08472
2.12146
2.15997
2.20026
2.24235
2.28623
2.33193
2.37946
2.42882
2.48
2.53302
2.58784
2.64446
2.70287
2.76305
2.82499
2.88867
2.95408
3.02119
3.08998
3.1604
3.2324
3.30591
3.38088
3.4572
3.5348
3.61358
3.69346
3.77433
3.85609
3.93864
4.02184
4.10558
4.18971
4.27406
4.35846
4.44273
4.52667
4.61007
4.69271
4.77439
4.85486
4.93389
5.01124
5.08664
5.15984
5.23057
5.29858
5.36361
5.42541
5.48375
5.53841
5.58916
5.63577
5.678
5.71563
5.74842
5.77613
5.79848
5.8152
5.82604
5.83073
5.82913
5.82012
5.80065
5.77073
5.73271
5.68601
5.62941
5.56207
5.48333
5.39236
5.28822
5.17007
5.03681
4.89241
4.7112
4.58525
4.27593
4.21334
-0.0184673
-0.0477575
-0.0200814
-0.0326131
-0.0174453
-0.0200801
-0.0112874
-0.00911286
-0.00211703
2.19534
2.19684
2.19982
2.20472
2.21213
2.22212
2.23447
2.24901
2.26565
2.28439
2.30522
2.32814
2.35318
2.38035
2.40968
2.44119
2.47489
2.51082
2.54899
2.5894
2.63207
2.67701
2.72421
2.7737
2.82547
2.87955
2.93595
2.99468
3.05577
3.11921
3.18501
3.25316
3.32364
3.39645
3.47156
3.54897
3.62864
3.71056
3.79471
3.88106
3.96957
4.06018
4.15283
4.24744
4.34393
4.44218
4.5421
4.64357
4.74647
4.85067
4.95604
5.06245
5.16972
5.2777
5.38618
5.49498
5.60386
5.71259
5.82092
5.92858
6.03528
6.14075
6.24467
6.34674
6.44664
6.54404
6.63861
6.73001
6.81791
6.90201
6.98197
7.05751
7.12833
7.19413
7.25461
7.30946
7.35837
7.40107
7.43722
7.46646
7.48844
7.50281
7.5092
7.5071
7.49385
7.46797
7.43118
7.38423
7.32578
7.2546
7.16961
7.06977
6.95396
6.82103
6.66977
6.49867
6.31319
6.07737
5.91974
5.497
5.43541
-0.0156411
-0.0374918
-0.0168
-0.0270608
-0.0146215
-0.0168786
-0.00937457
-0.00759573
-0.00168603
2.67882
2.68064
2.68427
2.69023
2.69928
2.71148
2.72656
2.74431
2.76464
2.78752
2.81295
2.84095
2.87152
2.90471
2.94052
2.979
3.02017
3.06405
3.11066
3.16002
3.21212
3.267
3.32465
3.38508
3.44832
3.51437
3.58327
3.65503
3.72966
3.80718
3.88758
3.97086
4.05701
4.14601
4.23784
4.33248
4.42992
4.53012
4.63305
4.73867
4.84694
4.9578
5.07116
5.18693
5.30502
5.42529
5.54764
5.67191
5.79797
5.92565
6.05481
6.18525
6.31678
6.4492
6.58227
6.71574
6.84935
6.9828
7.11578
7.24797
7.37901
7.50856
7.63622
7.76162
7.88437
8.00405
8.12027
8.23264
8.34075
8.44422
8.54268
8.63574
8.72305
8.80423
8.87891
8.9467
9.00723
9.06017
9.10511
9.14161
9.16926
9.18758
9.19616
9.19329
9.17648
9.14604
9.10366
9.04846
8.97903
8.89405
8.79221
8.67214
8.53244
8.37162
8.18813
7.98003
7.75395
7.46478
7.27261
6.74435
6.67283
-0.0128073
-0.0295049
-0.0137352
-0.0220407
-0.0120191
-0.0139312
-0.00767001
-0.0062441
-0.0013037
3.15979
3.16193
3.16621
3.17324
3.18392
3.19832
3.21612
3.23707
3.26106
3.28807
3.31809
3.35114
3.38724
3.42642
3.46871
3.51415
3.56276
3.61457
3.6696
3.72787
3.78939
3.85418
3.92225
3.99361
4.06829
4.14631
4.22769
4.31245
4.40061
4.49219
4.58719
4.6856
4.78741
4.89261
5.00118
5.11309
5.22831
5.34682
5.46857
5.59353
5.72162
5.85278
5.98692
6.12393
6.26371
6.40613
6.55102
6.69825
6.84763
6.99899
7.15212
7.30682
7.46285
7.61995
7.77787
7.9363
8.09492
8.2534
8.41136
8.56842
8.72415
8.87812
9.02987
9.17896
9.32491
9.46725
9.6055
9.73921
9.86792
9.99116
10.1085
10.2195
10.3237
10.4206
10.5099
10.591
10.6635
10.7271
10.7813
10.8255
10.8593
10.8822
10.8931
10.8896
10.8708
10.8378
10.7907
10.7281
10.6486
10.5509
10.4333
10.2942
10.1318
9.94433
9.72987
9.486
9.2204
8.87944
8.65195
8.02539
7.93839
-0.0101615
-0.0231513
-0.0110796
-0.0177458
-0.00977232
-0.0113664
-0.00623384
-0.00509123
-0.00100892
3.6378
3.64027
3.64519
3.65329
3.66559
3.68217
3.70267
3.72681
3.75445
3.78556
3.82016
3.85824
3.89985
3.94502
3.99377
4.04615
4.10218
4.16189
4.22532
4.29248
4.36338
4.43805
4.51651
4.59878
4.68487
4.77482
4.86866
4.96641
5.06809
5.17372
5.2833
5.39683
5.51431
5.63572
5.76104
5.89024
6.02329
6.16015
6.30077
6.44511
6.59308
6.74462
6.89963
7.05799
7.21959
7.38427
7.55187
7.72223
7.89513
8.07037
8.24771
8.42692
8.60771
8.7898
8.97288
9.15659
9.34059
9.52446
9.70778
9.89009
10.0709
10.2497
10.426
10.5992
10.7688
10.9342
11.095
11.2505
11.4003
11.5437
11.6804
11.8098
11.9313
12.0444
12.1487
12.2436
12.3286
12.4033
12.4672
12.5197
12.5603
12.5882
12.6015
12.5987
12.5799
12.5455
12.4945
12.4256
12.3374
12.2282
12.0962
11.9394
11.7559
11.5434
11.2996
11.0217
10.7182
10.3273
10.0648
9.34648
9.24032
-0.00793206
-0.0178815
-0.00873572
-0.0140666
-0.00778284
-0.00912263
-0.00497316
-0.00409232
-0.000756074
4.11241
4.11519
4.12076
4.12992
4.14383
4.16258
4.18577
4.21307
4.24434
4.27955
4.31869
4.3618
4.4089
4.46003
4.51522
4.57451
4.63793
4.70552
4.77731
4.85332
4.93357
5.0181
5.10691
5.20005
5.29753
5.3994
5.50567
5.61639
5.73156
5.85123
5.97538
6.10404
6.23718
6.37481
6.51689
6.6634
6.81431
6.96956
7.12911
7.29289
7.46083
7.63284
7.80881
7.98864
8.17218
8.35929
8.54978
8.74345
8.94009
9.13946
9.34128
9.54529
9.75116
9.95857
10.1672
10.3765
10.5863
10.796
11.0051
11.2131
11.4195
11.6236
11.8249
12.0228
12.2165
12.4056
12.5894
12.7673
12.9386
13.1029
13.2594
13.4076
13.5469
13.6768
13.7966
13.9057
14.0037
14.0901
14.1642
14.2258
14.2739
14.307
14.3237
14.3235
14.3062
14.2711
14.2173
14.1434
14.0478
13.9286
13.7839
13.6113
13.4086
13.1731
12.902
12.592
12.2528
11.8143
11.5176
10.7138
10.5847
-0.00597794
-0.0135865
-0.00664551
-0.0109846
-0.00603736
-0.0072042
-0.00388475
-0.00325337
-0.000544225
4.58316
4.58627
4.59247
4.60269
4.61819
4.6391
4.66496
4.6954
4.73028
4.76955
4.81323
4.86134
4.91391
4.97097
5.03257
5.09874
5.16953
5.24496
5.32508
5.4099
5.49947
5.59381
5.69294
5.79692
5.90576
6.0195
6.13819
6.26184
6.3905
6.52418
6.66289
6.80666
6.95547
7.10932
7.26818
7.43203
7.60083
7.77452
7.95305
8.13634
8.32433
8.5169
8.71396
8.91539
9.12104
9.33074
9.54431
9.76153
9.98215
10.2059
10.4325
10.6616
10.8929
11.126
11.3606
11.596
11.832
12.068
12.3034
12.5377
12.7701
13.0001
13.227
13.4501
13.6686
13.882
14.0894
14.2903
14.4839
14.6695
14.8465
15.0141
15.1718
15.3188
15.4547
15.5787
15.6903
15.7891
15.8746
15.946
16.0019
16.0411
16.0628
16.0663
16.0511
16.0164
15.961
15.8835
15.7821
15.6548
15.4994
15.3132
15.0935
14.8374
14.5416
14.2021
13.8297
13.3462
13.0166
12.1332
11.9772
-0.00423563
-0.00989241
-0.00493345
-0.00843307
-0.00446817
-0.00559003
-0.00293434
-0.00257765
-0.000355042
5.04961
5.05304
5.05988
5.07113
5.08822
5.11127
5.13977
5.17334
5.21181
5.25513
5.30331
5.35639
5.4144
5.47737
5.54535
5.61838
5.69649
5.77972
5.86812
5.96172
6.06055
6.16466
6.27408
6.38885
6.50901
6.63461
6.76567
6.90224
7.04435
7.19202
7.34529
7.50416
7.66863
7.8387
8.01435
8.19556
8.38228
8.57446
8.77203
8.97491
9.18303
9.39629
9.61457
9.83775
10.0657
10.2982
10.535
10.776
11.0209
11.2693
11.521
11.7756
12.0328
12.292
12.5529
12.8149
13.0777
13.3404
13.6027
13.8638
14.123
14.3795
14.6327
14.8817
15.1257
15.364
15.5958
15.8204
16.0369
16.2445
16.4426
16.6303
16.807
16.972
17.1247
17.2646
17.3909
17.5031
17.6005
17.682
17.7463
17.7926
17.82
17.828
17.8159
17.7828
17.7273
17.6478
17.5425
17.4092
17.2453
17.0479
16.8141
16.5403
16.2228
15.8569
15.4545
14.929
14.5681
13.6112
13.4243
-0.00267147
-0.00677215
-0.00354037
-0.00605721
-0.00331867
-0.00423131
-0.00210273
-0.00210788
-0.000146456
5.51132
5.51506
5.52253
5.53482
5.55347
5.57864
5.60977
5.64644
5.68846
5.7358
5.78847
5.84649
5.90991
5.97876
6.05308
6.13292
6.21831
6.30931
6.40595
6.50827
6.61632
6.73016
6.84981
6.97534
7.10678
7.24418
7.38759
7.53704
7.69258
7.85422
8.02202
8.19597
8.3761
8.56239
8.75485
8.95343
9.15811
9.36881
9.58548
9.80804
10.0364
10.2705
10.5101
10.7552
11.0056
11.2611
11.5214
11.7865
12.0559
12.3293
12.6065
12.887
13.1703
13.4561
13.7438
14.033
14.3231
14.6135
14.9033
15.1919
15.4785
15.7623
16.0424
16.318
16.5884
16.8525
17.1095
17.3586
17.5989
17.8295
18.0497
18.2585
18.4553
18.6393
18.8099
18.9663
19.1079
19.2338
19.3432
19.435
19.5082
19.5621
19.5962
19.6097
19.6018
19.5716
19.5175
19.4379
19.3308
19.1937
19.0241
18.8185
18.5737
18.2857
17.95
17.5613
17.1328
16.5688
16.1789
15.1549
14.9333
-0.00125323
-0.00418184
-0.00235312
-0.00405359
-0.00241441
-0.00295508
-0.00160565
-0.00143514
-0.000175192
5.96784
5.9719
5.97998
5.99329
6.0135
6.04077
6.0745
6.11424
6.1598
6.21113
6.26824
6.33118
6.39997
6.47465
6.55528
6.64188
6.73452
6.83322
6.93805
7.04904
7.16627
7.28977
7.41962
7.55585
7.69852
7.84769
8.0034
8.1657
8.33463
8.51022
8.69252
8.88154
9.07731
9.27983
9.48908
9.70506
9.92772
10.157
10.3928
10.6351
10.8838
11.1388
11.4
11.6672
11.9402
12.2189
12.5031
12.7924
13.0867
13.3855
13.6885
13.9952
14.3052
14.6181
14.9335
15.2506
15.5688
15.8874
16.2055
16.5223
16.837
17.1488
17.4568
17.76
18.0575
18.3484
18.6317
18.9064
19.1716
19.4263
19.6695
19.9005
20.1182
20.322
20.511
20.6844
20.8414
20.981
21.1025
21.2051
21.288
21.3505
21.3922
21.4122
21.4098
21.3838
21.3328
21.2551
21.1484
21.0104
20.8379
20.6276
20.3754
20.0771
19.7275
19.3203
18.87
18.2721
17.8559
16.7722
16.5121
3.70432e-05
-0.00208291
-0.0013197
-0.00242527
-0.00165575
-0.001901
-0.00118359
-0.000915395
-0.00017262
6.41873
6.4231
6.43179
6.44611
6.46786
6.4972
6.53351
6.5763
6.62535
6.68064
6.74217
6.80998
6.8841
6.96458
7.05146
7.14479
7.24461
7.35097
7.46393
7.58354
7.70988
7.843
7.98297
8.12986
8.28372
8.4446
8.61257
8.78767
8.96994
9.15945
9.35622
9.56029
9.77168
9.99041
10.2165
10.4499
10.6905
10.9384
11.1935
11.4556
11.7248
12.0008
12.2836
12.5731
12.869
13.1712
13.4794
13.7933
14.1128
14.4373
14.7665
15.1
15.4374
15.7783
16.122
16.4677
16.8146
17.162
17.509
17.8549
18.1986
18.5393
18.8761
19.2079
19.5337
19.8524
20.163
20.4643
20.7553
21.035
21.3022
21.5561
21.7954
22.0195
22.2273
22.418
22.5907
22.7445
22.879
22.9932
23.0866
23.1587
23.2089
23.2365
23.2407
23.2205
23.1743
23.1005
22.9968
22.8607
22.6888
22.4774
22.2221
21.918
21.5593
21.1387
20.672
20.0454
19.6064
18.4715
18.1694
0.00120036
-0.00043829
-0.000417441
-0.00116689
-0.00100019
-0.00110195
-0.000802198
-0.000555563
-0.000142942
6.86355
6.86822
6.87752
6.89284
6.9161
6.9475
6.98637
7.03217
7.08469
7.1439
7.2098
7.28244
7.36185
7.44808
7.54116
7.64115
7.7481
7.86206
7.98309
8.11126
8.24665
8.38933
8.53937
8.69685
8.86182
9.03437
9.21453
9.40238
9.59797
9.80134
10.0125
10.2316
10.4586
10.6936
10.9364
11.1872
11.4459
11.7125
11.9868
12.2689
12.5586
12.8558
13.1604
13.4723
13.7913
14.1172
14.4498
14.7887
15.1336
15.4843
15.8402
16.2012
16.5669
16.9364
17.3089
17.6837
18.06
18.4369
18.8138
19.1895
19.5632
19.9339
20.3005
20.6619
21.017
21.3646
21.7034
22.0324
22.3502
22.6558
22.9478
23.2253
23.487
23.732
23.9593
24.168
24.3572
24.526
24.674
24.8007
24.9054
24.9877
25.0472
25.0833
25.0953
25.0821
25.0426
24.9748
24.8768
24.7457
24.5781
24.3698
24.1161
23.8115
23.4493
23.0213
22.5444
21.8954
21.4382
20.2619
19.9147
0.00222462
0.000792333
0.000355282
-0.000257987
-0.000431597
-0.000548893
-0.000467402
-0.00032315
-9.84783e-05
7.30186
7.30684
7.31674
7.33304
7.3578
7.39123
7.43262
7.4814
7.53736
7.60045
7.67068
7.74811
7.83275
7.92467
8.0239
8.13049
8.2445
8.36599
8.49503
8.6317
8.77608
8.92824
9.08828
9.25628
9.43231
9.61645
9.80875
10.0093
10.2181
10.4353
10.6609
10.895
11.1375
11.3887
11.6483
11.9165
12.1933
12.4785
12.7722
13.0743
13.3846
13.7032
14.0298
14.3643
14.7066
15.0565
15.4137
15.7778
16.1487
16.5259
16.9094
17.2988
17.6931
18.0916
18.4935
18.898
19.3045
19.7119
20.1195
20.5262
20.9309
21.3326
21.7302
22.1223
22.5078
22.8854
23.2536
23.6113
23.957
24.2895
24.6073
24.9093
25.1943
25.4611
25.7087
25.9361
26.1424
26.3269
26.489
26.6286
26.7452
26.8383
26.9078
26.9531
26.9739
26.9692
26.9379
26.8785
26.7888
26.666
26.5066
26.3061
26.0594
25.7602
25.4011
24.9725
24.493
23.8293
23.3596
22.1533
21.7585
0.00307762
0.00165358
0.000966771
0.000347981
6.00787e-06
-0.000185368
-0.000224391
-0.000172325
-6.04418e-05
7.73323
7.73851
7.749
7.76627
7.79252
7.82796
7.87184
7.92357
7.98292
8.04985
8.12437
8.20652
8.29634
8.39389
8.4992
8.61233
8.73334
8.86229
8.99927
9.14436
9.29764
9.45923
9.62919
9.80764
9.99464
10.1903
10.3947
10.6078
10.8298
11.0608
11.3007
11.5497
11.8078
12.0751
12.3515
12.6371
12.9319
13.2359
13.549
13.8711
14.2022
14.5422
14.891
15.2484
15.6142
15.9883
16.3704
16.7602
17.1574
17.5621
17.9739
18.3919
18.8152
19.2432
19.6752
20.1103
20.5478
20.9867
21.426
21.8646
22.3015
22.7355
23.1651
23.5893
24.0064
24.4153
24.8142
25.2019
25.5767
25.9372
26.282
26.6096
26.9188
27.2083
27.477
27.7238
27.9479
28.1486
28.3254
28.4783
28.607
28.7113
28.7911
28.8463
28.8766
28.8816
28.8602
28.8112
28.7326
28.6216
28.4746
28.287
28.053
27.766
27.4175
26.9965
26.5232
25.8541
25.379
24.1563
23.7121
0.00351186
0.00217871
0.00135973
0.000697997
0.000270239
1.90797e-05
-8.64988e-05
-9.14473e-05
-3.87965e-05
8.15724
8.16282
8.17389
8.19212
8.21983
8.25725
8.30359
8.35824
8.42094
8.49165
8.5704
8.65723
8.75217
8.85527
8.96659
9.08619
9.21412
9.35046
9.4953
9.64873
9.81085
9.98177
10.1616
10.3504
10.5483
10.7554
10.9717
11.1974
11.4325
11.6772
11.9314
12.1953
12.4689
12.7522
13.0454
13.3484
13.6613
13.984
14.3165
14.6588
15.0108
15.3723
15.7434
16.1238
16.5134
16.912
17.3193
17.7352
18.1596
18.5923
19.0326
19.4795
19.9324
20.3907
20.8535
21.3201
21.7896
22.2609
22.733
23.2048
23.675
24.1424
24.6055
25.063
25.5133
25.9547
26.3858
26.8048
27.2101
27.6001
27.973
28.3275
28.662
28.9752
29.2658
29.5327
29.7752
29.9925
30.1842
30.3506
30.4916
30.6072
30.6975
30.7629
30.8033
30.8187
30.8087
30.7721
30.7072
30.6115
30.4814
30.3121
30.0975
29.8302
29.501
29.097
28.6403
27.977
27.5053
26.2821
25.7882
0.00388726
0.00240045
0.00153024
0.000819301
0.000348546
6.95051e-05
-5.86059e-05
-7.86751e-05
-3.78315e-05
8.57347
8.57933
8.59097
8.61015
8.6393
8.67868
8.72746
8.78497
8.85098
8.92543
9.00835
9.09978
9.19977
9.30836
9.42562
9.55159
9.68637
9.83001
9.98263
10.1443
10.3152
10.4954
10.6849
10.884
11.0927
11.3111
11.5393
11.7774
12.0256
12.2838
12.5523
12.831
13.12
13.4194
13.7293
14.0497
14.3807
14.7221
15.0741
15.4366
15.8094
16.1927
16.5862
16.9898
17.4034
17.8268
18.2597
18.7023
19.1545
19.6156
20.0846
20.561
21.0442
21.5334
22.0279
22.5268
23.0292
23.534
24.0401
24.5463
25.0512
25.5534
26.0514
26.5437
27.0286
27.5043
27.9691
28.421
28.8583
29.2792
29.6818
30.0644
30.4254
30.7633
31.0767
31.3645
31.6259
31.8602
32.0672
32.2469
32.4
32.5266
32.6273
32.7027
32.7534
32.7799
32.7821
32.7596
32.711
32.6342
32.5255
32.3803
32.1921
31.9532
31.6531
31.2771
30.8491
30.2048
29.7476
28.5429
28.0004
0.00397083
0.00230762
0.00144391
0.000705231
0.000229841
-3.8304e-05
-0.000145413
-0.000135841
-5.99705e-05
8.98148
8.98763
8.99984
9.01995
9.05052
9.09183
9.143
9.20335
9.27262
9.35075
9.43778
9.53375
9.6387
9.7527
9.87581
10.0081
10.1496
10.3005
10.4608
10.6306
10.8102
10.9995
11.1987
11.4079
11.6273
11.8569
12.0969
12.3474
12.6085
12.8802
13.1628
13.4562
13.7606
14.0761
14.4026
14.7404
15.0893
15.4496
15.821
16.2037
16.5976
17.0026
17.4187
17.8457
18.2835
18.7319
19.1911
19.6611
20.1413
20.6308
21.1291
21.6356
22.1497
22.6707
23.1977
23.7299
24.2662
24.8057
25.3469
25.8888
26.4297
26.9683
27.5028
28.0316
28.5527
29.0644
29.5646
30.0513
30.5223
30.9758
31.4097
31.822
32.2108
32.5746
32.9118
33.2213
33.5021
33.7536
33.9757
34.1686
34.3333
34.4703
34.5807
34.6655
34.7261
34.7635
34.7785
34.7713
34.7412
34.6864
34.6039
34.4889
34.3349
34.1336
33.8738
33.5384
33.1532
32.5438
32.1148
30.9509
30.3636
0.00373309
0.00188158
0.00107772
0.000340823
-9.85704e-05
-0.000312648
-0.000352922
-0.00026643
-0.000107298
9.38087
9.3873
9.40007
9.4211
9.45308
9.49629
9.54982
9.61296
9.68543
9.76718
9.85825
9.95868
10.0685
10.1878
10.3167
10.4552
10.6034
10.7614
10.9293
11.1072
11.2953
11.4936
11.7024
11.9216
12.1516
12.3923
12.644
12.9067
13.1805
13.4657
13.7623
14.0703
14.39
14.7214
15.0646
15.4197
15.7866
16.1656
16.5565
16.9594
17.3744
17.8013
18.24
18.6906
19.1528
19.6268
20.1127
20.6103
21.1186
21.637
22.1652
22.7024
23.2482
23.8017
24.3621
24.9286
25.5
26.0752
26.653
27.2319
27.8104
28.3869
28.9596
29.5266
30.086
30.6355
31.1731
31.6965
32.2033
32.6913
33.1583
33.6019
34.0201
34.4111
34.7732
35.105
35.4057
35.6746
35.9116
36.1172
36.2924
36.4387
36.5575
36.6505
36.7199
36.7675
36.7952
36.8038
36.7938
36.764
36.712
36.6334
36.5218
36.3685
36.1614
35.8812
35.5554
34.9998
34.6157
33.5188
32.8936
0.00315057
0.00109437
0.00040768
-0.000293548
-0.000651773
-0.000764112
-0.000688255
-0.00047471
-0.000182048
9.77125
9.77795
9.79127
9.8132
9.84657
9.89165
9.9475
10.0134
10.089
10.1743
10.2693
10.3741
10.4888
10.6133
10.7479
10.8925
11.0472
11.2122
11.3876
11.5735
11.77
11.9772
12.1954
12.4246
12.665
12.9167
13.1799
13.4547
13.7412
14.0397
14.3501
14.6728
15.0076
15.3549
15.7146
16.0869
16.4718
16.8694
17.2798
17.703
18.139
18.5879
19.0495
19.5237
20.0107
20.5107
21.0237
21.5489
22.0856
22.6334
23.192
23.7606
24.3387
24.9255
25.5203
26.122
26.7296
27.3419
27.9575
28.575
29.1927
29.8089
30.4216
31.0289
31.6285
32.2181
32.7953
33.3576
33.9023
34.427
34.9291
35.406
35.8554
36.275
36.6632
37.0182
37.3392
37.6255
37.877
38.0942
38.2786
38.4325
38.5577
38.6569
38.733
38.7892
38.8283
38.8526
38.8634
38.8609
38.8436
38.8077
38.7471
38.653
38.5125
38.3038
38.0566
37.5769
37.2586
36.2593
35.6077
0.00218179
-9.01786e-05
-0.000595748
-0.00122234
-0.00144797
-0.00140529
-0.00115923
-0.000764807
-0.000286239
10.1522
10.1592
10.173
10.1959
10.2306
10.2775
10.3356
10.4042
10.4829
10.5717
10.6706
10.7797
10.8991
11.0288
11.1688
11.3194
11.4806
11.6525
11.8353
12.029
12.2338
12.4499
12.6773
12.9163
13.167
13.4296
13.7041
13.9909
14.29
14.6015
14.9258
15.2628
15.6127
15.9757
16.3519
16.7413
17.1441
17.5604
17.9902
18.4336
18.8908
19.3616
19.846
20.3441
20.8563
21.3827
21.9228
22.4757
23.0413
23.619
24.2084
24.8091
25.4203
26.0413
26.6713
27.3094
27.9544
28.605
29.2599
29.9175
30.5761
31.2339
31.8887
32.5383
33.1804
33.8124
34.4317
35.0353
35.6205
36.1843
36.7238
37.2362
37.7187
38.1688
38.5844
38.9637
39.3054
39.6089
39.8742
40.102
40.2937
40.4526
40.5814
40.6837
40.7635
40.8254
40.8736
40.9119
40.9433
40.9696
40.9903
41.0031
41.0023
40.9793
40.9207
40.8021
40.6555
40.2779
40.0507
39.1849
38.5242
0.000771647
-0.00171569
-0.00196811
-0.00247538
-0.00250916
-0.00225092
-0.00177365
-0.00113837
-0.000419243
10.5233
10.5306
10.545
10.5687
10.6047
10.6534
10.7138
10.785
10.8667
10.959
11.0617
11.175
11.299
11.4337
11.5792
11.7357
11.9032
12.0819
12.2719
12.4733
12.6863
12.911
13.1476
13.3962
13.6571
13.9303
14.2161
14.5146
14.8261
15.1507
15.4885
15.8398
16.2046
16.5832
16.9757
17.3822
17.8027
18.2376
18.6868
19.1505
19.6287
20.1215
20.6289
21.1511
21.6888
22.2416
22.8087
23.3898
23.9845
24.5925
25.2135
25.8468
26.4918
27.1479
27.8141
28.4896
29.1731
29.8635
30.5592
31.2586
31.96
32.6613
33.3603
34.0547
34.7417
35.4187
36.0827
36.7305
37.359
37.9647
38.5445
39.0949
39.6129
40.0955
40.5401
40.9447
41.3077
41.6283
41.9065
42.143
42.3398
42.5003
42.629
42.7301
42.8091
42.8722
42.9255
42.9748
43.0251
43.0802
43.1415
43.2082
43.2756
43.3359
43.3758
43.3681
43.3474
43.1025
42.9974
42.3065
41.6624
-0.00114507
-0.00383481
-0.00375074
-0.00408811
-0.00386175
-0.00331954
-0.00254217
-0.00159821
-0.000579733
10.8843
10.8918
10.9067
10.9312
10.9686
11.0191
11.0817
11.1554
11.2401
11.3357
11.4421
11.5596
11.688
11.8277
11.9785
12.1408
12.3145
12.4998
12.6969
12.9059
13.1269
13.3601
13.6057
13.8638
14.1346
14.4183
14.7152
15.0254
15.349
15.6864
16.0377
16.4031
16.7827
17.1767
17.5854
18.0087
18.447
18.9003
19.3688
19.8526
20.3519
20.8667
21.3971
21.9439
22.5071
23.0861
23.6804
24.2899
24.9142
25.553
26.2059
26.8724
27.552
28.244
28.9474
29.6613
30.3848
31.1162
31.8543
32.5974
33.3434
34.0904
34.836
35.5775
36.3123
37.0371
37.7488
38.444
39.1189
39.7698
40.393
40.9845
41.5407
42.0582
42.5339
42.9652
43.3501
43.6876
43.9775
44.2207
44.4195
44.5777
44.7008
44.7951
44.8672
44.9253
44.9778
45.033
45.0985
45.1806
45.2834
45.4079
45.5516
45.7077
45.8636
45.9897
46.1236
46.0468
46.1013
45.6336
45.0417
-0.00364444
-0.00651159
-0.00599493
-0.00610851
-0.00554488
-0.00464425
-0.00349457
-0.00216887
-0.000772727
11.2346
11.2424
11.2578
11.2832
11.3219
11.3741
11.4388
11.5151
11.6027
11.7015
11.8116
11.933
12.0659
12.2103
12.3664
12.5342
12.714
12.9059
13.1099
13.3263
13.5552
13.7967
14.0511
14.3185
14.5991
14.8932
15.2009
15.5225
15.8582
16.2082
16.5728
16.952
17.3462
17.7555
18.1801
18.6202
19.076
19.5477
20.0353
20.5392
21.0595
21.5962
22.15
22.7213
23.3099
23.9151
24.5368
25.1749
25.829
26.499
27.1844
27.8848
28.5996
29.3282
30.0698
30.8234
31.5879
32.362
33.1442
33.9326
34.7254
35.5203
36.3149
37.1064
37.8918
38.6677
39.4305
40.1765
40.9015
41.6013
42.2714
42.9075
43.5053
44.0607
44.5698
45.0295
45.4373
45.7915
46.0918
46.3393
46.5364
46.6874
46.7981
46.8784
46.9355
46.9801
47.0234
47.0768
47.1512
47.2561
47.3989
47.5837
47.8105
48.0744
48.3646
48.6491
48.9695
49.1013
49.3609
49.1719
48.6819
-0.00681755
-0.00980741
-0.00871248
-0.00852267
-0.00752841
-0.00619435
-0.00460747
-0.00284701
-0.000997222
11.5741
11.5821
11.598
11.6242
11.6641
11.718
11.7848
11.8635
11.9539
12.0559
12.1696
12.2949
12.4321
12.5812
12.7423
12.9157
13.1014
13.2996
13.5104
13.734
13.9706
14.2203
14.4833
14.7598
15.0501
15.3543
15.6727
16.0055
16.353
16.7155
17.093
17.486
17.8945
18.3189
18.7593
19.2159
19.689
20.1788
20.6856
21.2094
21.7505
22.3092
22.8864
23.4822
24.096
24.7275
25.3767
26.0435
26.7277
27.4292
28.1475
28.8823
29.633
30.3991
31.1799
31.9742
32.7812
33.5993
34.4271
35.2629
36.1046
36.9499
37.7962
38.6406
39.4798
40.3102
41.1279
41.9287
42.7078
43.4606
44.182
44.867
45.5103
46.1071
46.6527
47.1431
47.5749
47.946
48.2555
48.5043
48.6952
48.8328
48.924
48.9801
49.0118
49.0316
49.0542
49.0949
49.1684
49.2888
49.4674
49.7124
50.0271
50.4099
50.8525
51.3215
51.8633
52.2497
52.769
52.9226
52.6019
-0.0107783
-0.0138561
-0.0120845
-0.0114909
-0.00994899
-0.00808546
-0.00596865
-0.0036708
-0.00126977
11.9022
11.9105
11.9269
11.9539
11.995
12.0505
12.1193
12.2005
12.2936
12.3987
12.5158
12.6449
12.7862
12.9399
13.106
13.2847
13.4762
13.6806
13.898
14.1287
14.3727
14.6304
14.9018
15.1873
15.4869
15.8011
16.1299
16.4738
16.8329
17.2075
17.5978
18.0042
18.4269
18.8661
19.322
19.795
20.2852
20.793
21.3185
21.8621
22.4239
23.0048
23.6053
24.2252
24.864
25.5218
26.1986
26.8943
27.6089
28.3421
29.0937
29.8634
30.6507
31.4551
32.2759
33.1121
33.9626
34.8263
35.7016
36.5867
37.4795
38.3777
39.2786
40.179
41.0755
41.9642
42.841
43.7009
44.5389
45.3496
46.1272
46.8658
47.5594
48.202
48.7878
49.3118
49.7696
50.1581
50.4758
50.7229
50.9023
51.0194
51.0819
51.1016
51.0945
51.075
51.0617
51.0746
51.1336
51.2578
51.4642
51.7658
52.1706
52.6812
53.2932
53.9729
54.7736
55.4652
56.3093
56.8789
56.8172
-0.0155742
-0.0185376
-0.0159643
-0.0149166
-0.0127067
-0.0102166
-0.00747913
-0.00456468
-0.00155717
12.2187
12.2272
12.2441
12.2719
12.3142
12.3713
12.4421
12.5255
12.6213
12.7294
12.8498
12.9826
13.128
13.2861
13.457
13.6409
13.838
14.0484
14.2722
14.5098
14.7611
15.0265
15.3062
15.6003
15.9092
16.233
16.5721
16.9267
17.2971
17.6836
18.0865
18.5061
18.9426
19.3963
19.8676
20.3566
20.8637
21.3892
21.9333
22.4964
23.079
23.6819
24.3055
24.9492
25.613
26.297
27.0014
27.7261
28.471
29.2362
30.0215
30.8265
31.6509
32.4943
33.3559
34.235
35.1305
36.0412
36.9656
37.902
38.8483
39.8021
40.7605
41.7203
42.6779
43.6291
44.5693
45.4934
46.3956
47.2697
48.1092
48.9074
49.6569
50.3506
50.9815
51.5431
52.0296
52.4366
52.7615
53.004
53.1664
53.2544
53.2771
53.2459
53.1832
53.1058
53.037
53.0023
53.0277
53.1392
53.3602
53.7103
54.2034
54.8473
55.6432
56.5588
57.6564
58.7075
59.9515
61.0238
61.3353
-0.0215214
-0.0244295
-0.0205888
-0.0189414
-0.0158922
-0.0126577
-0.00919833
-0.00558106
-0.00188931
12.5233
12.532
12.5493
12.5779
12.6213
12.68
12.7526
12.8383
12.9367
13.0476
13.1713
13.3077
13.457
13.6194
13.795
13.9839
14.1864
14.4026
14.6327
14.8769
15.1353
15.4083
15.6959
15.9985
16.3163
16.6496
16.9986
17.3637
17.7452
18.1434
18.5585
18.991
19.441
19.909
20.3952
20.9
21.4237
21.9666
22.529
23.1114
23.7147
24.3394
24.9856
25.6528
26.3414
27.0516
27.7835
28.5371
29.3126
30.1099
30.929
31.7697
32.6318
33.5147
34.418
35.3409
36.2825
37.2417
38.217
39.2067
40.2089
41.2209
42.2399
43.2627
44.2854
45.3036
46.3123
47.306
48.2782
49.2221
50.1304
50.9949
51.8073
52.5588
53.2408
53.8452
54.3643
54.7921
55.1242
55.3591
55.4983
55.5476
55.5168
55.4193
55.279
55.1206
54.9712
54.863
54.8299
54.9056
55.1219
55.5064
56.0805
56.8583
57.8485
59.0217
60.4531
61.9179
63.6395
65.3315
66.1559
-0.0284164
-0.0308262
-0.0257816
-0.0234084
-0.0193627
-0.0152906
-0.0110316
-0.00665205
-0.00223376
12.8155
12.8245
12.8422
12.8715
12.916
12.9762
13.0507
13.1385
13.2394
13.3531
13.4799
13.6198
13.7729
13.9394
14.1195
14.3133
14.521
14.7428
14.979
15.2296
15.4949
15.7751
16.0705
16.3813
16.7078
17.0502
17.409
17.7843
18.1765
18.586
19.0131
19.4581
19.9214
20.4033
20.9042
21.4244
21.9643
22.5243
23.1047
23.7062
24.3299
24.976
25.6443
26.3349
27.0481
27.7842
28.5434
29.326
30.1319
30.9614
31.8145
32.6912
33.5912
34.5142
35.4598
36.4275
37.4164
38.4254
39.4532
40.4983
41.5585
42.6316
43.7145
44.804
45.896
46.986
48.0687
49.138
50.1869
51.208
52.1926
53.1316
54.015
54.8326
55.5736
56.2277
56.7851
57.2373
57.5777
57.8027
57.9126
57.9125
57.8128
57.6293
57.3855
57.1176
56.8561
56.6416
56.517
56.526
56.7103
57.1077
57.7485
58.6547
59.8434
61.2901
63.0876
65.0162
67.2818
69.7487
71.258
-0.0368704
-0.0385415
-0.0316991
-0.0285252
-0.0232243
-0.0182126
-0.013061
-0.00784269
-0.00262055
13.0952
13.1043
13.1225
13.1525
13.1981
13.2596
13.3359
13.4258
13.529
13.6455
13.7753
13.9185
14.0753
14.2458
14.4302
14.6287
14.8415
15.0687
15.3106
15.5674
15.8394
16.1266
16.4295
16.7482
17.0831
17.4345
17.8026
18.1878
18.5905
19.011
19.4497
19.907
20.3831
20.8786
21.3937
21.9289
22.4847
23.0613
23.6594
24.2798
24.9235
25.5905
26.2806
26.9942
27.7317
28.4934
29.2797
30.0909
30.9273
31.7889
32.6761
33.5887
34.5269
35.4905
36.4791
37.4923
38.5294
39.5895
40.6714
41.7737
42.8944
44.0312
45.1813
46.3413
47.5072
48.6741
49.8366
50.9882
52.1213
53.2276
54.2975
55.3205
56.2849
57.1786
57.9885
58.7016
59.3052
59.7875
60.1389
60.353
60.4277
60.3668
60.1811
59.8887
59.5096
59.0973
58.685
58.3224
58.0643
57.9659
58.0814
58.4609
59.1459
60.1669
61.5498
63.2779
65.4673
67.9024
70.7659
74.0723
76.5832
-0.0462582
-0.0468238
-0.0381087
-0.0339888
-0.0272123
-0.0212367
-0.0151224
-0.0090322
-0.0029977
13.3619
13.3713
13.3899
13.4205
13.4671
13.53
13.608
13.6999
13.8054
13.9245
14.0571
14.2035
14.3638
14.5382
14.7268
14.9298