/*--------------------------------*- C++ -*----------------------------------*\
| =========                 |                                                 |
| \\      /  F ield         | OpenFOAM: The Open Source CFD Toolbox           |
|  \\    /   O peration     | Version:  v2106                                 |
|   \\  /    A nd           | Website:  www.openfoam.com                      |
|    \\/     M anipulation  |                                                 |
\*---------------------------------------------------------------------------*/
FoamFile
{
    version     2.0;
    format      ascii;
    arch        "LSB;label=32;scalar=64";
    class       surfaceScalarField;
    location    "0.5";
    object      phi;
}
// * * * * * * * * * * * * * * * * * * * * * * * * * * * * * * * * * * * * * //

dimensions      [0 3 -1 0 0 0 0];

oriented        oriented;

internalField   nonuniform List<scalar> 
59425
(
-5.84494e-10
-6.81237e-07
-1.24673e-09
-6.84133e-07
-1.93906e-09
-6.85412e-07
-2.62975e-09
-6.87081e-07
-3.32031e-09
-6.89325e-07
-4.0125e-09
-6.9228e-07
-4.70545e-09
-6.95995e-07
-5.3985e-09
-7.00448e-07
-6.0921e-09
-7.05605e-07
-6.78727e-09
-7.1144e-07
-7.48508e-09
-7.17944e-07
-8.18641e-09
-7.25116e-07
-8.89193e-09
-7.32959e-07
-9.60213e-09
-7.41474e-07
-1.03174e-08
-7.50668e-07
-1.1038e-08
-7.60544e-07
-1.17643e-08
-7.71108e-07
-1.24964e-08
-7.82363e-07
-1.32345e-08
-7.94316e-07
-1.39785e-08
-8.06971e-07
-1.47286e-08
-8.20333e-07
-1.54847e-08
-8.34408e-07
-1.62466e-08
-8.492e-07
-1.70143e-08
-8.64715e-07
-1.77874e-08
-8.80958e-07
-1.85656e-08
-8.97931e-07
-1.93483e-08
-9.15641e-07
-2.01352e-08
-9.34089e-07
-2.09255e-08
-9.5328e-07
-2.17183e-08
-9.73216e-07
-2.25129e-08
-9.93897e-07
-2.33079e-08
-1.01533e-06
-2.41023e-08
-1.0375e-06
-2.48946e-08
-1.06042e-06
-2.56833e-08
-1.08408e-06
-2.64664e-08
-1.10848e-06
-2.72422e-08
-1.13362e-06
-2.80083e-08
-1.15947e-06
-2.87622e-08
-1.18605e-06
-2.95012e-08
-1.21332e-06
-3.02223e-08
-1.24128e-06
-3.09221e-08
-1.26991e-06
-3.15971e-08
-1.2992e-06
-3.22433e-08
-1.3291e-06
-3.28563e-08
-1.35961e-06
-3.34316e-08
-1.39069e-06
-3.39642e-08
-1.4223e-06
-3.44487e-08
-1.4544e-06
-3.48792e-08
-1.48696e-06
-3.52496e-08
-1.51991e-06
-3.55534e-08
-1.55321e-06
-3.57835e-08
-1.5868e-06
-3.59326e-08
-1.62061e-06
-3.59929e-08
-1.65457e-06
-3.59564e-08
-1.68859e-06
-3.58145e-08
-1.7226e-06
-3.55584e-08
-1.7565e-06
-3.51793e-08
-1.79019e-06
-3.46677e-08
-1.82356e-06
-3.40142e-08
-1.8565e-06
-3.32094e-08
-1.88888e-06
-3.22435e-08
-1.92058e-06
-3.1107e-08
-1.95144e-06
-2.97906e-08
-1.98133e-06
-2.82849e-08
-2.0101e-06
-2.65813e-08
-2.03757e-06
-2.46714e-08
-2.06358e-06
-2.25475e-08
-2.08795e-06
-2.02028e-08
-2.1105e-06
-1.76312e-08
-2.13104e-06
-1.48278e-08
-2.14938e-06
-1.17889e-08
-2.16531e-06
-8.51203e-09
-2.17864e-06
-4.99641e-09
-2.18916e-06
-1.24295e-09
-2.19666e-06
2.7451e-09
-2.20093e-06
6.96359e-09
-2.20177e-06
1.14043e-08
-2.19897e-06
1.60571e-08
-2.19232e-06
2.09083e-08
-2.18164e-06
2.59399e-08
-2.16672e-06
3.1128e-08
-2.14739e-06
3.64407e-08
-2.12348e-06
4.1834e-08
-2.09485e-06
4.72473e-08
-2.06139e-06
5.25837e-08
-2.02301e-06
5.76969e-08
-1.97943e-06
6.25233e-08
-1.93024e-06
6.70359e-08
-1.8752e-06
7.12126e-08
-1.81449e-06
7.50733e-08
-1.7482e-06
7.87141e-08
-1.67615e-06
8.21454e-08
-1.59835e-06
8.52764e-08
-1.51488e-06
8.79172e-08
-1.42568e-06
8.96612e-08
-1.33037e-06
8.92826e-08
-1.22975e-06
8.34092e-08
-1.13582e-06
7.33548e-08
-1.07911e-06
-1.79469e-08
-1.03592e-06
-1.45696e-05
-3.15814e-05
-1.34108e-05
-3.16617e-06
-8.95949e-06
-5.12135e-06
-7.80512e-06
-1.96346e-06
-5.80164e-06
-1.96289e-06
-5.4844e-06
-1.84429e-06
-5.16454e-06
-1.73872e-06
-5.23782e-06
-1.31806e-06
-5.29876e-06
-9.02263e-07
-1.53942e-07
-1.07857e-09
-6.80159e-07
-2.15262e-09
-6.83059e-07
-3.2288e-09
-6.84336e-07
-4.31467e-09
-6.85995e-07
-5.41254e-09
-6.88227e-07
-6.51995e-09
-6.91173e-07
-7.63276e-09
-6.94882e-07
-8.74858e-09
-6.99332e-07
-9.86725e-09
-7.04486e-07
-1.09898e-08
-7.10317e-07
-1.21173e-08
-7.16816e-07
-1.32511e-08
-7.23983e-07
-1.43917e-08
-7.31818e-07
-1.55401e-08
-7.40326e-07
-1.66965e-08
-7.49512e-07
-1.78616e-08
-7.59379e-07
-1.90356e-08
-7.69934e-07
-2.02188e-08
-7.8118e-07
-2.14114e-08
-7.93123e-07
-2.26135e-08
-8.05769e-07
-2.38251e-08
-8.19122e-07
-2.50461e-08
-8.33187e-07
-2.62763e-08
-8.4797e-07
-2.75155e-08
-8.63476e-07
-2.87632e-08
-8.7971e-07
-3.00188e-08
-8.96676e-07
-3.12816e-08
-9.14378e-07
-3.25507e-08
-9.3282e-07
-3.3825e-08
-9.52006e-07
-3.51032e-08
-9.71937e-07
-3.63838e-08
-9.92616e-07
-3.76652e-08
-1.01404e-06
-3.89452e-08
-1.03622e-06
-4.02218e-08
-1.05914e-06
-4.14923e-08
-1.08281e-06
-4.27539e-08
-1.10722e-06
-4.40035e-08
-1.13237e-06
-4.52376e-08
-1.15824e-06
-4.64522e-08
-1.18483e-06
-4.76431e-08
-1.21213e-06
-4.88054e-08
-1.24012e-06
-4.99339e-08
-1.26879e-06
-5.10231e-08
-1.29811e-06
-5.20667e-08
-1.32806e-06
-5.3058e-08
-1.35862e-06
-5.39899e-08
-1.38976e-06
-5.48544e-08
-1.42143e-06
-5.56434e-08
-1.45361e-06
-5.63478e-08
-1.48625e-06
-5.69581e-08
-1.5193e-06
-5.74641e-08
-1.55271e-06
-5.78552e-08
-1.58641e-06
-5.81199e-08
-1.62035e-06
-5.82465e-08
-1.65444e-06
-5.82225e-08
-1.68862e-06
-5.80351e-08
-1.72279e-06
-5.76707e-08
-1.75687e-06
-5.71158e-08
-1.79075e-06
-5.63563e-08
-1.82432e-06
-5.53778e-08
-1.85748e-06
-5.41659e-08
-1.8901e-06
-5.27061e-08
-1.92204e-06
-5.09841e-08
-1.95316e-06
-4.89856e-08
-1.98333e-06
-4.6697e-08
-2.01238e-06
-4.4105e-08
-2.04016e-06
-4.1197e-08
-2.06648e-06
-3.79616e-08
-2.09118e-06
-3.43881e-08
-2.11407e-06
-3.04674e-08
-2.13496e-06
-2.61916e-08
-2.15365e-06
-2.15547e-08
-2.16995e-06
-1.65524e-08
-2.18364e-06
-1.11827e-08
-2.19453e-06
-5.44587e-09
-2.20239e-06
6.54213e-10
-2.20703e-06
7.11488e-09
-2.20823e-06
1.39242e-08
-2.20578e-06
2.10699e-08
-2.19947e-06
2.85345e-08
-2.1891e-06
3.62939e-08
-2.17448e-06
4.43158e-08
-2.15541e-06
5.25546e-08
-2.13172e-06
6.09487e-08
-2.10324e-06
6.94255e-08
-2.06987e-06
7.78467e-08
-2.03143e-06
8.59999e-08
-1.98758e-06
9.38638e-08
-1.93811e-06
1.01601e-07
-1.88294e-06
1.09296e-07
-1.82218e-06
1.16972e-07
-1.75587e-06
1.24664e-07
-1.68385e-06
1.32349e-07
-1.60604e-06
1.39972e-07
-1.5225e-06
1.47511e-07
-1.43322e-06
1.55024e-07
-1.33788e-06
1.6254e-07
-1.23726e-06
1.69446e-07
-1.14272e-06
1.81441e-07
-1.09111e-06
1.62509e-07
-1.01699e-06
-1.38846e-05
-1.75342e-05
-1.27336e-05
-4.31715e-06
-7.96742e-06
-9.88758e-06
-6.95694e-06
-2.97393e-06
-5.1113e-06
-3.80853e-06
-4.86319e-06
-2.0924e-06
-4.56719e-06
-2.03471e-06
-4.58903e-06
-1.29622e-06
-4.57872e-06
-9.12569e-07
-2.20593e-07
-1.66451e-09
-6.78494e-07
-3.31882e-09
-6.81405e-07
-4.96647e-09
-6.82688e-07
-6.61957e-09
-6.84342e-07
-8.28463e-09
-6.86562e-07
-9.9614e-09
-6.89496e-07
-1.16471e-08
-6.93196e-07
-1.33398e-08
-6.9764e-07
-1.50393e-08
-7.02786e-07
-1.67464e-08
-7.0861e-07
-1.84623e-08
-7.15101e-07
-2.01879e-08
-7.22257e-07
-2.19244e-08
-7.30081e-07
-2.36725e-08
-7.38578e-07
-2.5433e-08
-7.47751e-07
-2.72065e-08
-7.57606e-07
-2.89933e-08
-7.68147e-07
-3.0794e-08
-7.7938e-07
-3.26088e-08
-7.91309e-07
-3.44377e-08
-8.0394e-07
-3.62809e-08
-8.17278e-07
-3.81382e-08
-8.3133e-07
-4.00092e-08
-8.46099e-07
-4.18935e-08
-8.61592e-07
-4.37905e-08
-8.77813e-07
-4.56993e-08
-8.94767e-07
-4.76186e-08
-9.12458e-07
-4.95473e-08
-9.30891e-07
-5.14835e-08
-9.50069e-07
-5.34255e-08
-9.69995e-07
-5.53708e-08
-9.90671e-07
-5.73169e-08
-1.0121e-06
-5.92609e-08
-1.03428e-06
-6.11993e-08
-1.05721e-06
-6.31284e-08
-1.08088e-06
-6.50439e-08
-1.10531e-06
-6.6941e-08
-1.13047e-06
-6.88144e-08
-1.15637e-06
-7.06583e-08
-1.18299e-06
-7.24661e-08
-1.21032e-06
-7.42307e-08
-1.23835e-06
-7.59443e-08
-1.26707e-06
-7.75984e-08
-1.29645e-06
-7.91839e-08
-1.32648e-06
-8.06906e-08
-1.35711e-06
-8.21078e-08
-1.38834e-06
-8.34239e-08
-1.42012e-06
-8.46264e-08
-1.45241e-06
-8.57019e-08
-1.48518e-06
-8.66362e-08
-1.51837e-06
-8.74143e-08
-1.55193e-06
-8.80201e-08
-1.58581e-06
-8.84368e-08
-1.61993e-06
-8.86467e-08
-1.65423e-06
-8.86315e-08
-1.68863e-06
-8.83719e-08
-1.72305e-06
-8.78481e-08
-1.75739e-06
-8.70397e-08
-1.79156e-06
-8.59259e-08
-1.82544e-06
-8.44855e-08
-1.85892e-06
-8.26969e-08
-1.89188e-06
-8.05389e-08
-1.92419e-06
-7.799e-08
-1.95571e-06
-7.50293e-08
-1.98629e-06
-7.16363e-08
-2.01578e-06
-6.77914e-08
-2.044e-06
-6.34759e-08
-2.0708e-06
-5.86726e-08
-2.09599e-06
-5.33656e-08
-2.11938e-06
-4.75408e-08
-2.14078e-06
-4.11863e-08
-2.16001e-06
-3.42926e-08
-2.17684e-06
-2.68526e-08
-2.19108e-06
-1.88622e-08
-2.20252e-06
-1.03207e-08
-2.21094e-06
-1.23038e-09
-2.21612e-06
8.39928e-09
-2.21786e-06
1.856e-08
-2.21594e-06
2.9235e-08
-2.21014e-06
4.04017e-08
-2.20027e-06
5.20298e-08
-2.18611e-06
6.4079e-08
-2.16746e-06
7.64944e-08
-2.14414e-06
8.92068e-08
-2.11596e-06
1.02148e-07
-2.08281e-06
1.15205e-07
-2.04448e-06
1.28445e-07
-2.00082e-06
1.41925e-07
-1.95159e-06
1.55676e-07
-1.89669e-06
1.69586e-07
-1.83609e-06
1.83504e-07
-1.76979e-06
1.97371e-07
-1.69771e-06
2.11149e-07
-1.61982e-06
2.24772e-07
-1.53612e-06
2.38173e-07
-1.44662e-06
2.51216e-07
-1.35093e-06
2.63454e-07
-1.2495e-06
2.72894e-07
-1.15217e-06
2.82222e-07
-1.10044e-06
3.04228e-07
-1.039e-06
-4.9304e-06
-1.22996e-05
-4.73355e-06
-4.514e-06
-5.30362e-06
-9.31751e-06
-4.96664e-06
-3.3109e-06
-4.49264e-06
-4.28253e-06
-4.32135e-06
-2.26369e-06
-4.13886e-06
-2.2172e-06
-4.13095e-06
-1.30412e-06
-4.13115e-06
-9.1237e-07
-2.55133e-07
-2.28538e-09
-6.76209e-07
-4.56831e-09
-6.79122e-07
-6.84438e-09
-6.80412e-07
-9.12307e-09
-6.82063e-07
-1.14113e-08
-6.84273e-07
-1.37112e-08
-6.87196e-07
-1.60222e-08
-6.90885e-07
-1.83437e-08
-6.95318e-07
-2.0676e-08
-7.00454e-07
-2.30199e-08
-7.06266e-07
-2.53766e-08
-7.12744e-07
-2.77472e-08
-7.19886e-07
-3.01329e-08
-7.27696e-07
-3.25347e-08
-7.36176e-07
-3.49535e-08
-7.45333e-07
-3.73901e-08
-7.5517e-07
-3.98451e-08
-7.65692e-07
-4.23189e-08
-7.76906e-07
-4.4812e-08
-7.88816e-07
-4.73245e-08
-8.01427e-07
-4.98564e-08
-8.14746e-07
-5.24076e-08
-8.28778e-07
-5.49776e-08
-8.43529e-07
-5.75658e-08
-8.59004e-07
-6.01712e-08
-8.75207e-07
-6.27928e-08
-8.92145e-07
-6.54288e-08
-9.09822e-07
-6.80775e-08
-9.28243e-07
-7.07366e-08
-9.4741e-07
-7.34035e-08
-9.67328e-07
-7.60751e-08
-9.87999e-07
-7.87478e-08
-1.00943e-06
-8.14176e-08
-1.03161e-06
-8.40799e-08
-1.05454e-06
-8.67295e-08
-1.07823e-06
-8.93606e-08
-1.10268e-06
-9.19667e-08
-1.12786e-06
-9.45405e-08
-1.15379e-06
-9.70741e-08
-1.18045e-06
-9.95587e-08
-1.20784e-06
-1.01984e-07
-1.23593e-06
-1.04341e-07
-1.26471e-06
-1.06616e-07
-1.29418e-06
-1.08798e-07
-1.32429e-06
-1.10873e-07
-1.35504e-06
-1.12826e-07
-1.38639e-06
-1.14641e-07
-1.4183e-06
-1.16301e-07
-1.45075e-06
-1.17789e-07
-1.48369e-06
-1.19085e-07
-1.51707e-06
-1.20167e-07
-1.55085e-06
-1.21016e-07
-1.58496e-06
-1.21607e-07
-1.61934e-06
-1.21916e-07
-1.65392e-06
-1.21919e-07
-1.68863e-06
-1.21589e-07
-1.72338e-06
-1.20899e-07
-1.75808e-06
-1.19822e-07
-1.79263e-06
-1.18328e-07
-1.82693e-06
-1.1639e-07
-1.86086e-06
-1.13977e-07
-1.8943e-06
-1.11061e-07
-1.92711e-06
-1.07612e-07
-1.95916e-06
-1.03602e-07
-1.9903e-06
-9.90016e-08
-2.02038e-06
-9.37851e-08
-2.04922e-06
-8.79265e-08
-2.07666e-06
-8.14018e-08
-2.10251e-06
-7.4189e-08
-2.12659e-06
-6.62686e-08
-2.1487e-06
-5.76238e-08
-2.16865e-06
-4.82408e-08
-2.18622e-06
-3.81095e-08
-2.20121e-06
-2.72235e-08
-2.2134e-06
-1.55805e-08
-2.22258e-06
-3.18356e-09
-2.22852e-06
9.9606e-09
-2.23101e-06
2.38384e-08
-2.22982e-06
3.8431e-08
-2.22474e-06
5.37123e-08
-2.21555e-06
6.96482e-08
-2.20204e-06
8.61955e-08
-2.18401e-06
1.03302e-07
-2.16124e-06
1.20905e-07
-2.13356e-06
1.38929e-07
-2.10083e-06
1.57375e-07
-2.06293e-06
1.76262e-07
-2.01971e-06
1.95545e-07
-1.97087e-06
2.15153e-07
-1.9163e-06
2.34979e-07
-1.85592e-06
2.54884e-07
-1.7897e-06
2.74751e-07
-1.71758e-06
2.94478e-07
-1.63954e-06
3.13955e-07
-1.5556e-06
3.33068e-07
-1.46573e-06
3.51644e-07
-1.3695e-06
3.69435e-07
-1.26729e-06
3.85447e-07
-1.16818e-06
4.01261e-07
-1.11625e-06
4.28394e-07
-1.06613e-06
-2.39103e-06
-9.48018e-06
-2.3386e-06
-4.56642e-06
-3.64745e-06
-8.00865e-06
-3.62113e-06
-3.33722e-06
-3.62155e-06
-4.2821e-06
-3.55408e-06
-2.33115e-06
-3.50156e-06
-2.26971e-06
-3.4938e-06
-1.31187e-06
-3.48559e-06
-9.2057e-07
-2.8124e-07
-2.91566e-09
-6.73293e-07
-5.83686e-09
-6.76201e-07
-8.75519e-09
-6.77494e-07
-1.16763e-08
-6.79142e-07
-1.46057e-08
-6.81344e-07
-1.75462e-08
-6.84256e-07
-2.04992e-08
-6.87932e-07
-2.34656e-08
-6.92351e-07
-2.64462e-08
-6.97473e-07
-2.94422e-08
-7.0327e-07
-3.24551e-08
-7.09731e-07
-3.54861e-08
-7.16855e-07
-3.85367e-08
-7.24645e-07
-4.1608e-08
-7.33105e-07
-4.47012e-08
-7.4224e-07
-4.78172e-08
-7.52054e-07
-5.09568e-08
-7.62553e-07
-5.41206e-08
-7.73742e-07
-5.73091e-08
-7.85627e-07
-6.05225e-08
-7.98214e-07
-6.37609e-08
-8.11508e-07
-6.7024e-08
-8.25515e-07
-7.03113e-08
-8.40242e-07
-7.3622e-08
-8.55693e-07
-7.6955e-08
-8.71874e-07
-8.03087e-08
-8.88792e-07
-8.36812e-08
-9.0645e-07
-8.70702e-08
-9.24854e-07
-9.04728e-08
-9.44008e-07
-9.38857e-08
-9.63915e-07
-9.7305e-08
-9.8458e-07
-1.00726e-07
-1.006e-06
-1.04144e-07
-1.02819e-06
-1.07553e-07
-1.05113e-06
-1.10947e-07
-1.07484e-06
-1.14317e-07
-1.09931e-06
-1.17657e-07
-1.12453e-06
-1.20956e-07
-1.15049e-06
-1.24204e-07
-1.17721e-06
-1.27391e-07
-1.20465e-06
-1.30504e-07
-1.23282e-06
-1.33529e-07
-1.26169e-06
-1.36452e-07
-1.29125e-06
-1.39257e-07
-1.32149e-06
-1.41927e-07
-1.35237e-06
-1.44443e-07
-1.38387e-06
-1.46784e-07
-1.41596e-06
-1.4893e-07
-1.44861e-06
-1.50857e-07
-1.48176e-06
-1.5254e-07
-1.51539e-06
-1.53954e-07
-1.54943e-06
-1.5507e-07
-1.58384e-06
-1.5586e-07
-1.61855e-06
-1.56292e-07
-1.65349e-06
-1.56334e-07
-1.68859e-06
-1.55954e-07
-1.72376e-06
-1.55117e-07
-1.75892e-06
-1.53787e-07
-1.79396e-06
-1.51927e-07
-1.82879e-06
-1.49501e-07
-1.86329e-06
-1.4647e-07
-1.89733e-06
-1.42798e-07
-1.93078e-06
-1.38447e-07
-1.96351e-06
-1.33379e-07
-1.99537e-06
-1.27559e-07
-2.0262e-06
-1.20952e-07
-2.05583e-06
-1.13524e-07
-2.08408e-06
-1.05245e-07
-2.11079e-06
-9.60861e-08
-2.13575e-06
-8.60212e-08
-2.15877e-06
-7.50284e-08
-2.17964e-06
-6.30894e-08
-2.19816e-06
-5.01902e-08
-2.21411e-06
-3.63217e-08
-2.22727e-06
-2.148e-08
-2.23742e-06
-5.66654e-09
-2.24433e-06
1.1109e-08
-2.24778e-06
2.88344e-08
-2.24754e-06
4.74875e-08
-2.24339e-06
6.70396e-08
-2.2351e-06
8.74535e-08
-2.22246e-06
1.08685e-07
-2.20524e-06
1.30682e-07
-2.18324e-06
1.53342e-07
-2.15622e-06
1.76559e-07
-2.12405e-06
2.00427e-07
-2.0868e-06
2.24868e-07
-2.04415e-06
2.49813e-07
-1.99581e-06
2.75159e-07
-1.94164e-06
3.00785e-07
-1.88154e-06
3.26546e-07
-1.81546e-06
3.52301e-07
-1.74334e-06
3.77909e-07
-1.66515e-06
4.03221e-07
-1.58091e-06
4.28098e-07
-1.49061e-06
4.5235e-07
-1.39376e-06
4.75864e-07
-1.29081e-06
4.97671e-07
-1.18998e-06
5.18401e-07
-1.13698e-06
5.45156e-07
-1.09289e-06
-1.03e-06
-7.90503e-06
-1.04477e-06
-4.55165e-06
-2.34526e-06
-6.70815e-06
-2.50657e-06
-3.1759e-06
-2.78653e-06
-4.00212e-06
-2.82626e-06
-2.29141e-06
-2.89421e-06
-2.20176e-06
-2.91842e-06
-1.28766e-06
-2.94755e-06
-8.91432e-07
-2.90955e-07
-3.54922e-09
-6.69744e-07
-7.10963e-09
-6.72641e-07
-1.06709e-08
-6.73933e-07
-1.42363e-08
-6.75576e-07
-1.781e-08
-6.7777e-07
-2.13952e-08
-6.8067e-07
-2.49943e-08
-6.84333e-07
-2.86092e-08
-6.88736e-07
-3.22416e-08
-6.93841e-07
-3.58931e-08
-6.99618e-07
-3.95654e-08
-7.06059e-07
-4.32602e-08
-7.13161e-07
-4.69791e-08
-7.20927e-07
-5.07235e-08
-7.29361e-07
-5.44948e-08
-7.38469e-07
-5.82942e-08
-7.48255e-07
-6.21225e-08
-7.58725e-07
-6.59807e-08
-7.69884e-07
-6.98692e-08
-7.81739e-07
-7.37884e-08
-7.94295e-07
-7.77383e-08
-8.07558e-07
-8.17188e-08
-8.21535e-07
-8.57292e-08
-8.36231e-07
-8.97685e-08
-8.51653e-07
-9.38355e-08
-8.67807e-07
-9.79283e-08
-8.84699e-07
-1.02045e-07
-9.02333e-07
-1.06182e-07
-9.20717e-07
-1.10336e-07
-9.39853e-07
-1.14504e-07
-9.59748e-07
-1.18681e-07
-9.80404e-07
-1.2286e-07
-1.00182e-06
-1.27038e-07
-1.02401e-06
-1.31205e-07
-1.04697e-06
-1.35354e-07
-1.07069e-06
-1.39477e-07
-1.09518e-06
-1.43564e-07
-1.12044e-06
-1.47603e-07
-1.14646e-06
-1.51582e-07
-1.17323e-06
-1.55487e-07
-1.20074e-06
-1.59305e-07
-1.229e-06
-1.63018e-07
-1.25798e-06
-1.66609e-07
-1.28766e-06
-1.70058e-07
-1.31804e-06
-1.73345e-07
-1.34908e-06
-1.76447e-07
-1.38077e-06
-1.79339e-07
-1.41307e-06
-1.81996e-07
-1.44595e-06
-1.84388e-07
-1.47937e-06
-1.86487e-07
-1.51329e-06
-1.8826e-07
-1.54766e-06
-1.89674e-07
-1.58243e-06
-1.90692e-07
-1.61753e-06
-1.91279e-07
-1.6529e-06
-1.91393e-07
-1.68847e-06
-1.90996e-07
-1.72416e-06
-1.90043e-07
-1.75987e-06
-1.88492e-07
-1.79551e-06
-1.86299e-07
-1.83098e-06
-1.83416e-07
-1.86617e-06
-1.79798e-07
-1.90094e-06
-1.754e-07
-1.93518e-06
-1.70174e-07
-1.96874e-06
-1.64075e-07
-2.00147e-06
-1.57058e-07
-2.03321e-06
-1.4908e-07
-2.0638e-06
-1.401e-07
-2.09306e-06
-1.30079e-07
-2.12081e-06
-1.18981e-07
-2.14685e-06
-1.06775e-07
-2.17098e-06
-9.34313e-08
-2.19299e-06
-7.89277e-08
-2.21267e-06
-6.32457e-08
-2.2298e-06
-4.6373e-08
-2.24415e-06
-2.83036e-08
-2.25549e-06
-9.03827e-09
-2.2636e-06
1.14153e-08
-2.26824e-06
3.30421e-08
-2.26917e-06
5.58184e-08
-2.26617e-06
7.97127e-08
-2.259e-06
1.04684e-07
-2.24743e-06
1.3068e-07
-2.23124e-06
1.57586e-07
-2.21014e-06
1.85254e-07
-2.18389e-06
2.13741e-07
-2.15254e-06
2.43056e-07
-2.11611e-06
2.73091e-07
-2.07418e-06
3.03745e-07
-2.02647e-06
3.34899e-07
-1.9728e-06
3.66413e-07
-1.91306e-06
3.9813e-07
-1.84717e-06
4.2988e-07
-1.77509e-06
4.61489e-07
-1.69676e-06
4.92771e-07
-1.61219e-06
5.23549e-07
-1.52139e-06
5.53601e-07
-1.42381e-06
5.82869e-07
-1.32007e-06
6.1026e-07
-1.21737e-06
6.36297e-07
-1.16302e-06
6.66428e-07
-1.12302e-06
-3.55233e-07
-6.88337e-06
-4.44262e-07
-4.46262e-06
-1.48268e-06
-5.66972e-06
-1.70226e-06
-2.95631e-06
-2.06393e-06
-3.64044e-06
-2.15957e-06
-2.19576e-06
-2.28173e-06
-2.07959e-06
-2.3242e-06
-1.24518e-06
-2.36432e-06
-8.51305e-07
-2.93475e-07
-4.18308e-09
-6.65561e-07
-8.38141e-09
-6.68442e-07
-1.25832e-08
-6.69731e-07
-1.67907e-08
-6.71369e-07
-2.10074e-08
-6.73554e-07
-2.52366e-08
-6.76441e-07
-2.94814e-08
-6.80088e-07
-3.37446e-08
-6.84473e-07
-3.80283e-08
-6.89557e-07
-4.23348e-08
-6.95312e-07
-4.66661e-08
-7.01727e-07
-5.10243e-08
-7.08802e-07
-5.54113e-08
-7.1654e-07
-5.98287e-08
-7.24944e-07
-6.42781e-08
-7.34019e-07
-6.8761e-08
-7.43772e-07
-7.32786e-08
-7.54207e-07
-7.78317e-08
-7.65331e-07
-8.24212e-08
-7.77149e-07
-8.70474e-08
-7.89668e-07
-9.17104e-08
-8.02895e-07
-9.64101e-08
-8.16835e-07
-1.01146e-07
-8.31495e-07
-1.05917e-07
-8.46883e-07
-1.10721e-07
-8.63003e-07
-1.15556e-07
-8.79863e-07
-1.2042e-07
-8.97469e-07
-1.2531e-07
-9.15827e-07
-1.30222e-07
-9.34942e-07
-1.35151e-07
-9.54819e-07
-1.40091e-07
-9.75463e-07
-1.45037e-07
-9.96878e-07
-1.49981e-07
-1.01907e-06
-1.54916e-07
-1.04203e-06
-1.59832e-07
-1.06578e-06
-1.64718e-07
-1.0903e-06
-1.69564e-07
-1.11559e-06
-1.74356e-07
-1.14166e-06
-1.79081e-07
-1.1685e-06
-1.83721e-07
-1.1961e-06
-1.88261e-07
-1.22446e-06
-1.92681e-07
-1.25356e-06
-1.9696e-07
-1.28338e-06
-2.01075e-07
-1.31392e-06
-2.05003e-07
-1.34515e-06
-2.08716e-07
-1.37706e-06
-2.12185e-07
-1.4096e-06
-2.15381e-07
-1.44275e-06
-2.1827e-07
-1.47648e-06
-2.20816e-07
-1.51074e-06
-2.22983e-07
-1.54549e-06
-2.2473e-07
-1.58068e-06
-2.26015e-07
-1.61625e-06
-2.26794e-07
-1.65212e-06
-2.27021e-07
-1.68825e-06
-2.26647e-07
-1.72453e-06
-2.25623e-07
-1.76089e-06
-2.23895e-07
-1.79724e-06
-2.21411e-07
-1.83347e-06
-2.18117e-07
-1.86946e-06
-2.13957e-07
-1.9051e-06
-2.08875e-07
-1.94026e-06
-2.02818e-07
-1.9748e-06
-1.95729e-07
-2.00856e-06
-1.87555e-07
-2.04139e-06
-1.78244e-07
-2.07311e-06
-1.67746e-07
-2.10356e-06
-1.56014e-07
-2.13254e-06
-1.43006e-07
-2.15986e-06
-1.2868e-07
-2.1853e-06
-1.13004e-07
-2.20866e-06
-9.59476e-08
-2.22972e-06
-7.74886e-08
-2.24825e-06
-5.76108e-08
-2.26402e-06
-3.63055e-08
-2.2768e-06
-1.35719e-08
-2.28633e-06
1.05822e-08
-2.29239e-06
3.61423e-08
-2.29473e-06
6.30818e-08
-2.29311e-06
9.13667e-08
-2.28728e-06
1.20943e-07
-2.27701e-06
1.51693e-07
-2.26199e-06
1.83433e-07
-2.24188e-06
2.16173e-07
-2.21663e-06
2.5006e-07
-2.18642e-06
2.8495e-07
-2.151e-06
3.20704e-07
-2.10994e-06
3.57202e-07
-2.06297e-06
3.94309e-07
-2.0099e-06
4.31869e-07
-1.95062e-06
4.69704e-07
-1.88501e-06
5.0762e-07
-1.813e-06
5.45409e-07
-1.73455e-06
5.82848e-07
-1.64963e-06
6.19718e-07
-1.55826e-06
6.55751e-07
-1.45984e-06
6.90889e-07
-1.35521e-06
7.23875e-07
-1.25036e-06
7.55233e-07
-1.19437e-06
7.89071e-07
-1.15685e-06
8.28785e-08
-6.17717e-06
-7.6708e-08
-4.30302e-06
-8.34229e-07
-4.91218e-06
-1.07209e-06
-2.71843e-06
-1.43069e-06
-3.28183e-06
-1.56214e-06
-2.0643e-06
-1.71061e-06
-1.93112e-06
-1.77265e-06
-1.18313e-06
-1.82475e-06
-7.99202e-07
-2.87498e-07
-4.81551e-09
-6.60746e-07
-9.64955e-09
-6.63608e-07
-1.44889e-08
-6.64892e-07
-1.93354e-08
-6.66522e-07
-2.41923e-08
-6.68697e-07
-2.90633e-08
-6.7157e-07
-3.39519e-08
-6.75199e-07
-3.88614e-08
-6.79563e-07
-4.37947e-08
-6.84623e-07
-4.87545e-08
-6.90352e-07
-5.37432e-08
-6.96739e-07
-5.87632e-08
-7.03782e-07
-6.38167e-08
-7.11486e-07
-6.89057e-08
-7.19855e-07
-7.40322e-08
-7.28893e-07
-7.91978e-08
-7.38607e-07
-8.44038e-08
-7.49001e-07
-8.96516e-08
-7.60083e-07
-9.49418e-08
-7.71859e-07
-1.00275e-07
-7.84335e-07
-1.05652e-07
-7.97518e-07
-1.11072e-07
-8.11415e-07
-1.16534e-07
-8.26033e-07
-1.22038e-07
-8.41379e-07
-1.27582e-07
-8.5746e-07
-1.33163e-07
-8.74282e-07
-1.38778e-07
-8.91853e-07
-1.44425e-07
-9.1018e-07
-1.50099e-07
-9.29268e-07
-1.55794e-07
-9.49124e-07
-1.61505e-07
-9.69752e-07
-1.67225e-07
-9.91158e-07
-1.72945e-07
-1.01335e-06
-1.78656e-07
-1.03632e-06
-1.84349e-07
-1.06008e-06
-1.90011e-07
-1.08463e-06
-1.9563e-07
-1.10997e-06
-2.0119e-07
-1.1361e-06
-2.06675e-07
-1.16302e-06
-2.12069e-07
-1.19071e-06
-2.1735e-07
-1.21918e-06
-2.22497e-07
-1.24841e-06
-2.27487e-07
-1.27839e-06
-2.32293e-07
-1.30912e-06
-2.36888e-07
-1.34056e-06
-2.41241e-07
-1.3727e-06
-2.4532e-07
-1.40552e-06
-2.49088e-07
-1.43898e-06
-2.52508e-07
-1.47306e-06
-2.5554e-07
-1.50771e-06
-2.58139e-07
-1.54289e-06
-2.60262e-07
-1.57856e-06
-2.61858e-07
-1.61465e-06
-2.62876e-07
-1.65111e-06
-2.63264e-07
-1.68786e-06
-2.62964e-07
-1.72483e-06
-2.61918e-07
-1.76194e-06
-2.60066e-07
-1.79909e-06
-2.57347e-07
-1.83619e-06
-2.53695e-07
-1.87311e-06
-2.49047e-07
-1.90975e-06
-2.43338e-07
-1.94597e-06
-2.36502e-07
-1.98163e-06
-2.28476e-07
-2.01658e-06
-2.19197e-07
-2.05067e-06
-2.08601e-07
-2.08371e-06
-1.96631e-07
-2.11553e-06
-1.83231e-07
-2.14594e-06
-1.68349e-07
-2.17474e-06
-1.51938e-07
-2.20171e-06
-1.33956e-07
-2.22665e-06
-1.14368e-07
-2.24931e-06
-9.3146e-08
-2.26948e-06
-7.027e-08
-2.2869e-06
-4.57279e-08
-2.30134e-06
-1.95166e-08
-2.31254e-06
8.35607e-09
-2.32026e-06
3.78769e-08
-2.32425e-06
6.90132e-08
-2.32424e-06
1.01721e-07
-2.31999e-06
1.3586e-07
-2.31115e-06
1.71246e-07
-2.29737e-06
2.07864e-07
-2.2785e-06
2.45939e-07
-2.25471e-06
2.85392e-07
-2.22588e-06
3.25998e-07
-2.19161e-06
3.67616e-07
-2.15156e-06
4.10113e-07
-2.10546e-06
4.5334e-07
-2.05313e-06
4.97124e-07
-1.9944e-06
5.41267e-07
-1.92915e-06
5.85551e-07
-1.85729e-06
6.29735e-07
-1.77873e-06
6.73561e-07
-1.69346e-06
7.16765e-07
-1.60146e-06
7.59025e-07
-1.5021e-06
8.0026e-07
-1.39645e-06
8.39065e-07
-1.28917e-06
8.75931e-07
-1.23124e-06
9.14609e-07
-1.19553e-06
4.0018e-07
-5.66274e-06
2.97775e-07
-4.20061e-06
-3.31821e-07
-4.28257e-06
-5.56474e-07
-2.49376e-06
-8.86403e-07
-2.95189e-06
-1.03227e-06
-1.91842e-06
-1.18425e-06
-1.77913e-06
-1.25764e-06
-1.10973e-06
-1.31303e-06
-7.43806e-07
-2.75435e-07
-5.44548e-09
-6.553e-07
-1.09124e-08
-6.58141e-07
-1.63859e-08
-6.59418e-07
-2.18681e-08
-6.6104e-07
-2.73621e-08
-6.63202e-07
-3.28718e-08
-6.6606e-07
-3.84014e-08
-6.69669e-07
-4.39548e-08
-6.7401e-07
-4.95352e-08
-6.79043e-07
-5.51459e-08
-6.84741e-07
-6.07897e-08
-6.91095e-07
-6.64693e-08
-6.98103e-07
-7.21874e-08
-7.05768e-07
-7.79463e-08
-7.14096e-07
-8.37482e-08
-7.23091e-07
-8.9595e-08
-7.3276e-07
-9.54885e-08
-7.43108e-07
-1.0143e-07
-7.54142e-07
-1.07421e-07
-7.65868e-07
-1.13461e-07
-7.78295e-07
-1.19552e-07
-7.91427e-07
-1.25693e-07
-8.05274e-07
-1.31883e-07
-8.19843e-07
-1.38122e-07
-8.3514e-07
-1.44407e-07
-8.51174e-07
-1.50737e-07
-8.67952e-07
-1.57107e-07
-8.85483e-07
-1.63516e-07
-9.03772e-07
-1.69957e-07
-9.22827e-07
-1.76425e-07
-9.42656e-07
-1.82913e-07
-9.63264e-07
-1.89414e-07
-9.84657e-07
-1.95919e-07
-1.00684e-06
-2.02418e-07
-1.02982e-06
-2.089e-07
-1.0536e-06
-2.15351e-07
-1.07818e-06
-2.21756e-07
-1.10357e-06
-2.28101e-07
-1.12976e-06
-2.34366e-07
-1.15675e-06
-2.40531e-07
-1.18454e-06
-2.46576e-07
-1.21313e-06
-2.52474e-07
-1.24251e-06
-2.58201e-07
-1.27267e-06
-2.63726e-07
-1.30359e-06
-2.69019e-07
-1.33527e-06
-2.74045e-07
-1.36768e-06
-2.78768e-07
-1.4008e-06
-2.83146e-07
-1.43461e-06
-2.87139e-07
-1.46907e-06
-2.90699e-07
-1.50415e-06
-2.93778e-07
-1.53982e-06
-2.96324e-07
-1.57601e-06
-2.98282e-07
-1.61269e-06
-2.99593e-07
-1.64979e-06
-3.00197e-07
-1.68725e-06
-3.00029e-07
-1.725e-06
-2.99023e-07
-1.76295e-06
-2.9711e-07
-1.80101e-06
-2.94217e-07
-1.83908e-06
-2.90272e-07
-1.87706e-06
-2.85201e-07
-1.91482e-06
-2.78929e-07
-1.95224e-06
-2.7138e-07
-1.98918e-06
-2.6248e-07
-2.02548e-06
-2.52155e-07
-2.06099e-06
-2.40333e-07
-2.09553e-06
-2.26947e-07
-2.12892e-06
-2.11929e-07
-2.16096e-06
-1.9522e-07
-2.19145e-06
-1.76764e-07
-2.22017e-06
-1.56511e-07
-2.2469e-06
-1.34419e-07
-2.2714e-06
-1.10453e-07
-2.29344e-06
-8.459e-08
-2.31276e-06
-5.68132e-08
-2.32912e-06
-2.71176e-08
-2.34224e-06
4.49056e-09
-2.35187e-06
3.79959e-08
-2.35776e-06
7.33304e-08
-2.35958e-06
1.10368e-07
-2.35703e-06
1.48935e-07
-2.34971e-06
1.89044e-07
-2.33748e-06
2.30915e-07
-2.32037e-06
2.74531e-07
-2.29832e-06
3.19651e-07
-2.271e-06
3.66096e-07
-2.23805e-06
4.1372e-07
-2.19918e-06
4.62377e-07
-2.15412e-06
5.11903e-07
-2.10266e-06
5.62106e-07
-2.04461e-06
6.12771e-07
-1.97982e-06
6.63655e-07
-1.90817e-06
7.14487e-07
-1.82956e-06
7.6497e-07
-1.74394e-06
8.148e-07
-1.65129e-06
8.63596e-07
-1.55089e-06
9.11242e-07
-1.44409e-06
9.56198e-07
-1.33412e-06
9.98904e-07
-1.27395e-06
1.04284e-06
-1.23947e-06
6.66322e-07
-5.28622e-06
5.86067e-07
-4.12034e-06
8.36238e-08
-3.78011e-06
-1.36215e-07
-2.27391e-06
-4.1356e-07
-2.67453e-06
-5.6397e-07
-1.768e-06
-7.03982e-07
-1.63911e-06
-7.83892e-07
-1.02981e-06
-8.37192e-07
-6.90501e-07
-2.58592e-07
-6.07225e-09
-6.49228e-07
-1.21686e-08
-6.52045e-07
-1.82729e-08
-6.53314e-07
-2.4387e-08
-6.54926e-07
-3.05144e-08
-6.57075e-07
-3.66595e-08
-6.59915e-07
-4.2827e-08
-6.63502e-07
-4.90211e-08
-6.67816e-07
-5.52457e-08
-6.72818e-07
-6.15044e-08
-6.78482e-07
-6.78006e-08
-6.84799e-07
-7.41373e-08
-6.91766e-07
-8.05176e-08
-6.99388e-07
-8.69442e-08
-7.0767e-07
-9.34195e-08
-7.16616e-07
-9.9946e-08
-7.26234e-07
-1.06525e-07
-7.36529e-07
-1.1316e-07
-7.47508e-07
-1.1985e-07
-7.59178e-07
-1.26597e-07
-7.71547e-07
-1.33402e-07
-7.84623e-07
-1.40264e-07
-7.98412e-07
-1.47184e-07
-8.12923e-07
-1.54159e-07
-8.28165e-07
-1.61189e-07
-8.44145e-07
-1.6827e-07
-8.60871e-07
-1.754e-07
-8.78353e-07
-1.82574e-07
-8.96597e-07
-1.89788e-07
-9.15613e-07
-1.97035e-07
-9.35408e-07
-2.04309e-07
-9.5599e-07
-2.11601e-07
-9.77365e-07
-2.18901e-07
-9.99541e-07
-2.26199e-07
-1.02252e-06
-2.33482e-07
-1.04632e-06
-2.40736e-07
-1.07093e-06
-2.47946e-07
-1.09636e-06
-2.55092e-07
-1.12261e-06
-2.62157e-07
-1.14969e-06
-2.69117e-07
-1.17758e-06
-2.75949e-07
-1.2063e-06
-2.82625e-07
-1.23583e-06
-2.89118e-07
-1.26617e-06
-2.95394e-07
-1.29731e-06
-3.01419e-07
-1.32924e-06
-3.07155e-07
-1.36194e-06
-3.12561e-07
-1.39539e-06
-3.17593e-07
-1.42957e-06
-3.22204e-07
-1.46446e-06
-3.26341e-07
-1.50001e-06
-3.29951e-07
-1.5362e-06
-3.32976e-07
-1.57299e-06
-3.35354e-07
-1.61031e-06
-3.3702e-07
-1.64813e-06
-3.37904e-07
-1.68637e-06
-3.37935e-07
-1.72497e-06
-3.37038e-07
-1.76384e-06
-3.35133e-07
-1.80291e-06
-3.3214e-07
-1.84207e-06
-3.27977e-07
-1.88122e-06
-3.22557e-07
-1.92024e-06
-3.15796e-07
-1.959e-06
-3.07608e-07
-1.99737e-06
-2.97907e-07
-2.03518e-06
-2.86608e-07
-2.07229e-06
-2.7363e-07
-2.10851e-06
-2.58891e-07
-2.14366e-06
-2.42317e-07
-2.17753e-06
-2.23836e-07
-2.20993e-06
-2.03383e-07
-2.24062e-06
-1.809e-07
-2.26938e-06
-1.56337e-07
-2.29597e-06
-1.29653e-07
-2.32013e-06
-1.00816e-07
-2.3416e-06
-6.9809e-08
-2.36012e-06
-3.66264e-08
-2.37542e-06
-1.28483e-09
-2.38721e-06
3.61538e-08
-2.3952e-06
7.5561e-08
-2.39899e-06
1.16813e-07
-2.39828e-06
1.60007e-07
-2.39291e-06
2.05276e-07
-2.38275e-06
2.52608e-07
-2.36771e-06
3.0181e-07
-2.34752e-06
3.52695e-07
-2.32188e-06
4.05102e-07
-2.29046e-06
4.58878e-07
-2.25296e-06
5.13865e-07
-2.20911e-06
5.6988e-07
-2.15867e-06
6.26717e-07
-2.10144e-06
6.84142e-07
-2.03724e-06
7.41887e-07
-1.96591e-06
7.99655e-07
-1.88733e-06
8.57113e-07
-1.8014e-06
9.13913e-07
-1.70809e-06
9.69616e-07
-1.6066e-06
1.02407e-06
-1.49855e-06
1.07561e-06
-1.38566e-06
1.12463e-06
-1.32296e-06
1.17453e-06
-1.28937e-06
8.98045e-07
-5.00974e-06
8.3881e-07
-4.0611e-06
4.02456e-07
-3.34374e-06
2.54626e-07
-2.12607e-06
1.53073e-08
-2.4352e-06
-1.4667e-07
-1.60601e-06
-2.64763e-07
-1.52101e-06
-3.49804e-07
-9.44764e-07
-3.96832e-07
-6.43469e-07
-2.38496e-07
-6.69523e-09
-6.42533e-07
-1.34172e-08
-6.45323e-07
-2.01481e-08
-6.46583e-07
-2.68902e-08
-6.48184e-07
-3.36472e-08
-6.50318e-07
-4.04239e-08
-6.53138e-07
-4.72255e-08
-6.567e-07
-5.40567e-08
-6.60984e-07
-6.09221e-08
-6.65953e-07
-6.78256e-08
-6.71579e-07
-7.47711e-08
-6.77853e-07
-8.1762e-08
-6.84775e-07
-8.88017e-08
-6.92349e-07
-9.58934e-08
-7.00578e-07
-1.0304e-07
-7.0947e-07
-1.10244e-07
-7.1903e-07
-1.17508e-07
-7.29265e-07
-1.24833e-07
-7.40182e-07
-1.32222e-07
-7.51789e-07
-1.39676e-07
-7.64094e-07
-1.47195e-07
-7.77104e-07
-1.54779e-07
-7.90827e-07
-1.62429e-07
-8.05274e-07
-1.70143e-07
-8.20451e-07
-1.77919e-07
-8.36368e-07
-1.85755e-07
-8.53035e-07
-1.93648e-07
-8.7046e-07
-2.01594e-07
-8.88652e-07
-2.09586e-07
-9.0762e-07
-2.1762e-07
-9.27374e-07
-2.25687e-07
-9.47922e-07
-2.33779e-07
-9.69273e-07
-2.41886e-07
-9.91434e-07
-2.49995e-07
-1.01441e-06
-2.58094e-07
-1.03822e-06
-2.66168e-07
-1.06286e-06
-2.74198e-07
-1.08833e-06
-2.82167e-07
-1.11464e-06
-2.90053e-07
-1.1418e-06
-2.97832e-07
-1.1698e-06
-3.05478e-07
-1.19866e-06
-3.12962e-07
-1.22835e-06
-3.20253e-07
-1.25888e-06