/*--------------------------------*- C++ -*----------------------------------*\
| =========                 |                                                 |
| \\      /  F ield         | OpenFOAM: The Open Source CFD Toolbox           |
|  \\    /   O peration     | Version:  v2106                                 |
|   \\  /    A nd           | Website:  www.openfoam.com                      |
|    \\/     M anipulation  |                                                 |
\*---------------------------------------------------------------------------*/
FoamFile
{
    version     2.0;
    format      ascii;
    arch        "LSB;label=32;scalar=64";
    class       volVectorField;
    location    "0.5";
    object      U;
}
// * * * * * * * * * * * * * * * * * * * * * * * * * * * * * * * * * * * * * //

dimensions      [0 1 -1 0 0 0 0];

internalField   nonuniform List<vector> 
29678
(
(-0.00568184 2.35417e-25 -2.27786e-06)
(-0.00570662 1.0189e-23 -7.41119e-06)
(-0.00571752 1.84044e-22 -1.32542e-05)
(-0.0057314 3.07628e-21 -1.90598e-05)
(-0.0057501 3.08011e-20 -2.48021e-05)
(-0.00577474 3.22251e-20 -3.0556e-05)
(-0.0058057 2.72628e-20 -3.63258e-05)
(-0.00584281 2.71863e-20 -4.20995e-05)
(-0.00588579 -5.67443e-20 -4.78752e-05)
(-0.00593443 2.08153e-20 -5.36595e-05)
(-0.00598865 -5.45449e-20 -5.94617e-05)
(-0.00604845 2.47808e-20 -6.529e-05)
(-0.00611384 -5.4833e-20 -7.11508e-05)
(-0.00618484 2.38583e-20 -7.70488e-05)
(-0.0062615 -6.50051e-20 -8.29875e-05)
(-0.00634384 3.03153e-20 -8.89699e-05)
(-0.00643192 -6.90964e-20 -9.49984e-05)
(-0.00652576 -6.77991e-20 -0.000101075)
(-0.00662542 2.54034e-20 -0.0001072)
(-0.00673093 -6.61414e-20 -0.000113375)
(-0.00684233 -7.66938e-20 -0.000119601)
(-0.00695967 -7.59511e-20 -0.000125877)
(-0.00708299 -3.74685e-21 -0.000132202)
(-0.00721233 -9.22727e-21 -0.000138576)
(-0.00734772 -3.63455e-20 -0.000144996)
(-0.00748921 -8.31852e-21 -0.000151461)
(-0.00763683 -3.8338e-20 -0.000157966)
(-0.0077906 3.67853e-20 -0.000164507)
(-0.00795055 -8.18227e-20 -0.00017108)
(-0.0081167 -9.04812e-20 -0.000177678)
(-0.00828906 -9.02106e-20 -0.000184294)
(-0.00846764 -3.85417e-21 -0.00019092)
(-0.00865243 8.63927e-21 -0.000197545)
(-0.00884341 4.40392e-20 -0.000204159)
(-0.00904057 4.65025e-20 -0.00021075)
(-0.00924386 4.71277e-20 -0.000217303)
(-0.00945324 4.76726e-20 -0.000223803)
(-0.00966864 5.4031e-20 -0.000230232)
(-0.00988997 5.63906e-20 -0.00023657)
(-0.0101171 5.50466e-20 -0.000242796)
(-0.01035 5.98397e-20 -0.000248886)
(-0.0105884 5.38997e-20 -0.000254814)
(-0.0108322 5.47399e-20 -0.00026055)
(-0.0110812 6.04795e-20 -0.000266062)
(-0.0113352 6.4483e-20 -0.000271318)
(-0.0115938 -5.50981e-20 -0.000276279)
(-0.0118569 5.97043e-20 -0.000280906)
(-0.012124 7.61761e-20 -0.000285155)
(-0.0123949 7.18807e-20 -0.000288979)
(-0.012669 7.19056e-20 -0.00029233)
(-0.012946 6.7432e-20 -0.000295152)
(-0.0132253 7.65703e-20 -0.000297391)
(-0.0135063 7.44411e-20 -0.000298987)
(-0.0137886 6.87281e-20 -0.000299875)
(-0.0140713 4.94738e-21 -0.000299991)
(-0.0143539 7.84864e-20 -0.000299265)
(-0.0146354 7.88766e-20 -0.000297625)
(-0.0149151 8.49891e-20 -0.000294997)
(-0.0151921 8.39859e-20 -0.000291304)
(-0.0154654 8.85114e-20 -0.000286469)
(-0.015734 8.62305e-20 -0.000280413)
(-0.0159968 8.64741e-20 -0.000273054)
(-0.0162526 8.87331e-20 -0.000264314)
(-0.0165002 8.80096e-20 -0.000254113)
(-0.0167383 8.92719e-20 -0.000242372)
(-0.0169656 9.89103e-20 -0.000229018)
(-0.0171806 8.94389e-21 -0.000213978)
(-0.017382 6.6375e-20 -0.000197186)
(-0.017568 -1.87912e-19 -0.00017858)
(-0.0177373 9.29127e-20 -0.000158107)
(-0.0178882 -7.72984e-20 -0.000135721)
(-0.0180191 7.87913e-20 -0.000111384)
(-0.0181282 -6.48788e-20 -8.50717e-05)
(-0.0182138 8.73128e-20 -5.67696e-05)
(-0.0182744 -9.46979e-20 -2.6482e-05)
(-0.018308 -1.17729e-19 5.78303e-06)
(-0.0183131 8.24114e-20 3.99931e-05)
(-0.0182879 -8.16602e-20 7.60911e-05)
(-0.0182308 6.69793e-20 0.000114005)
(-0.0181401 -1.93232e-19 0.000153636)
(-0.0180143 6.83031e-20 0.000194854)
(-0.0178519 -8.74392e-20 0.000237488)
(-0.0176516 8.42208e-20 0.000281312)
(-0.0174124 -8.76448e-20 0.000326011)
(-0.0171334 -7.3367e-20 0.000371126)
(-0.0168141 8.05788e-20 0.000416126)
(-0.0164528 -7.99709e-20 0.00046069)
(-0.0160453 6.78454e-20 0.000501783)
(-0.0155891 -5.79955e-20 0.000540474)
(-0.015086 4.299e-20 0.000576447)
(-0.0145362 -1.23901e-19 0.000609888)
(-0.0139377 -1.05836e-21 0.000641234)
(-0.0132911 4.5642e-20 0.000670762)
(-0.0125979 -1.0484e-19 0.000698265)
(-0.0118587 3.08069e-20 0.00072268)
(-0.0110718 -9.75904e-20 0.000741673)
(-0.0102509 2.38511e-20 0.000748606)
(-0.00951348 -5.50326e-20 0.000750897)
(-0.00907582 2.52938e-20 0.000592962)
(-0.00938782 -3.40582e-21 0.00070566)
(-0.38346 -1.2689e-19 -0.00143435)
(-0.0166415 -9.72925e-21 -0.220566)
(-0.00569969 -7.14686e-20 -0.0249972)
(-0.00676272 3.08231e-20 -0.1107)
(0.000258471 -2.55977e-20 -0.0291554)
(-0.0127225 -1.8148e-20 -0.0612173)
(-0.0118253 -1.77687e-19 -0.0348963)
(-0.011572 1.44037e-19 -0.0478192)
(-0.00800294 1.33554e-19 -0.0421774)
(-0.000756904 -1.02208e-19 -0.0436672)
(-0.00567268 2.43628e-24 -4.45549e-06)
(-0.00569716 6.37717e-23 -1.34483e-05)
(-0.00570799 1.31853e-21 -2.24994e-05)
(-0.0057219 2.79094e-20 -3.14466e-05)
(-0.00574055 1.41094e-21 -4.04977e-05)
(-0.00576514 1.73279e-22 -4.96883e-05)
(-0.00579607 9.34349e-22 -5.89538e-05)
(-0.00583318 2.41974e-20 -6.82472e-05)
(-0.00587614 -2.52393e-20 -7.75585e-05)
(-0.00592475 -2.25071e-21 -8.68951e-05)
(-0.00597894 -2.68468e-20 -9.62686e-05)
(-0.00603869 2.5013e-20 -0.000105689)
(-0.00610402 -2.45835e-20 -0.000115164)
(-0.00617496 -2.53022e-21 -0.000124701)
(-0.00625155 -3.17762e-20 -0.000134303)
(-0.00633382 3.07053e-20 -0.000143975)
(-0.00642181 -3.33675e-20 -0.000153721)
(-0.00651558 -2.84606e-20 -0.000163542)
(-0.00661515 5.74541e-20 -0.000173441)
(-0.00672057 -3.04999e-20 -0.000183418)
(-0.00683189 -3.56541e-20 -0.000193475)
(-0.00694915 -3.25825e-20 -0.000203611)
(-0.00707239 -9.20297e-22 -0.000213825)
(-0.00720165 -3.87396e-20 -0.000224116)
(-0.00733697 -4.75104e-21 -0.000234478)
(-0.00747839 -7.21761e-20 -0.00024491)
(-0.00762594 3.49422e-20 -0.000255405)
(-0.00777966 7.32626e-20 -0.000265956)
(-0.00793956 -3.78353e-20 -0.000276556)
(-0.00810568 -4.25858e-20 -0.000287194)
(-0.00827801 -4.00377e-20 -0.000297859)
(-0.00845658 -2.0001e-21 -0.000308538)
(-0.00864138 -6.03392e-20 -0.000319214)
(-0.00883239 -3.04221e-21 -0.000329871)
(-0.0090296 3.92353e-20 -0.000340489)
(-0.00923297 1.46119e-21 -0.000351045)
(-0.00944246 -5.93532e-21 -0.000361515)
(-0.00965799 1.87734e-21 -0.000371871)
(-0.00987948 -1.71336e-21 -0.000382082)
(-0.0101068 -2.42063e-21 -0.000392113)
(-0.01034 2.11946e-21 -0.000401928)
(-0.0105787 4.4531e-20 -0.000411483)
(-0.0108228 1.7154e-21 -0.000420735)
(-0.0110722 1.23853e-21 -0.000429634)
(-0.0113266 -4.77585e-21 -0.000438126)
(-0.0115858 -1.04397e-19 -0.000446154)
(-0.0118495 -3.55115e-21 -0.000453655)
(-0.0121173 2.89015e-21 -0.000460562)
(-0.0123889 6.0263e-20 -0.000466802)
(-0.0126638 2.48558e-21 -0.000472299)
(-0.0129417 -5.4012e-21 -0.000476971)
(-0.013222 6.69625e-20 -0.00048073)
(-0.0135042 6.28174e-20 -0.000483486)
(-0.0137877 -6.6579e-20 -0.00048514)
(-0.0140717 -2.0309e-21 -0.000485593)
(-0.0143557 6.74466e-20 -0.000484738)
(-0.0146388 -6.81461e-20 -0.000482466)
(-0.0149202 2.97176e-22 -0.000478663)
(-0.0151991 3.06512e-21 -0.000473214)
(-0.0154743 7.44141e-20 -0.000466001)
(-0.015745 2.70953e-21 -0.000456904)
(-0.01601 -3.39465e-22 -0.000445801)
(-0.0162681 1.91981e-21 -0.000432572)
(-0.0165182 -2.32362e-21 -0.000417099)
(-0.0167589 2.38961e-21 -0.000399263)
(-0.0169889 8.6231e-20 -0.000378954)
(-0.0172067 4.58249e-21 -0.000356062)
(-0.017411 -8.55743e-21 -0.000330487)
(-0.0176001 -1.59983e-19 -0.000302137)
(-0.0177725 -6.68737e-21 -0.000270929)
(-0.0179266 -4.21825e-22 -0.000236791)
(-0.0180606 -5.41144e-21 -0.000199666)
(-0.018173 -1.27214e-19 -0.000159509)
(-0.0182619 -7.22388e-21 -0.000116293)
(-0.0183257 -8.85518e-21 -7.00176e-05)
(-0.0183626 -2.18992e-19 -2.06923e-05)
(-0.0183708 -8.127e-21 3.16652e-05)
(-0.0183487 -5.76767e-22 8.69824e-05)
(-0.0182945 -6.7354e-21 0.000145159)
(-0.0182065 -1.7294e-19 0.000206076)
(-0.0180832 -6.84406e-21 0.000269564)
(-0.017923 -4.68429e-22 0.000335391)
(-0.0177245 -8.05029e-21 0.000403241)
(-0.0174864 -1.39442e-19 0.000472638)
(-0.0172076 -1.01424e-20 0.000543067)
(-0.0168865 -9.21209e-21 0.000614834)
(-0.0165222 -1.45843e-19 0.000683469)
(-0.0161126 -3.64792e-21 0.00074975)
(-0.0156537 -8.3201e-23 0.00081478)
(-0.0151467 -6.67117e-21 0.000878387)
(-0.0145929 -1.42188e-19 0.000942576)
(-0.0139918 -1.58054e-20 0.00100697)
(-0.0133432 -5.33602e-22 0.00107114)
(-0.0126471 -1.23672e-19 0.00113496)
(-0.0119033 -1.06699e-20 0.0011982)
(-0.0111085 -1.16397e-19 0.00126045)
(-0.0102676 -1.51099e-20 0.00132863)
(-0.00947487 -1.11951e-19 0.00137489)
(-0.0089937 -2.86055e-21 0.00142827)
(-0.0082069 5.8749e-20 0.00165932)
(-0.165509 -8.77896e-20 0.000288253)
(-0.0378634 -9.89351e-20 -0.21271)
(-0.0773406 -1.7728e-19 -0.0203794)
(-0.0249759 -6.98354e-21 -0.100216)
(-0.0312937 7.12022e-20 -0.0245312)
(-0.0178154 -6.22528e-20 -0.0549868)
(-0.0169275 -2.23679e-20 -0.0303772)
(-0.0110526 4.0454e-20 -0.0425943)
(-0.00762943 -2.30095e-19 -0.036418)
(-0.00190248 8.37289e-20 -0.0376319)
(-0.00566132 -3.54133e-25 -6.87731e-06)
(-0.00568596 -5.19698e-24 -2.08066e-05)
(-0.00569691 -6.67157e-23 -3.46974e-05)
(-0.00571081 -7.67704e-22 -4.83056e-05)
(-0.00572939 -2.79742e-20 -6.20464e-05)
(-0.0057539 -2.9299e-20 -7.59729e-05)
(-0.00578478 -2.47794e-20 -9.00055e-05)
(-0.00582184 -2.22386e-20 -0.000104094)
(-0.00586477 5.39011e-20 -0.000118232)
(-0.00591334 -1.927e-20 -0.000132425)
(-0.00596747 4.75681e-20 -0.000146685)
(-0.00602716 -2.61865e-20 -0.000161023)
(-0.00609241 5.23953e-20 -0.000175447)
(-0.00616327 -2.24403e-20 -0.000189964)
(-0.00623978 5.69399e-20 -0.000204582)
(-0.00632196 -2.35614e-20 -0.000219306)
(-0.00640987 5.94572e-20 -0.00023414)
(-0.00650354 6.00088e-20 -0.000249087)
(-0.00660302 -2.59367e-20 -0.000264151)
(-0.00670835 6.0655e-20 -0.000279333)
(-0.00681957 6.21632e-20 -0.000294634)
(-0.00693673 7.01459e-20 -0.000310053)
(-0.00705988 2.95333e-21 -0.000325588)
(-0.00718905 4.92805e-21 -0.000341236)
(-0.00732428 3.06319e-20 -0.000356993)
(-0.00746562 4.02992e-21 -0.000372852)
(-0.0076131 4.02015e-20 -0.000388805)
(-0.00776676 -2.98148e-20 -0.000404841)
(-0.00792661 7.25035e-20 -0.000420948)
(-0.00809269 7.92616e-20 -0.000437111)
(-0.008265 7.81854e-20 -0.000453313)
(-0.00844356 9.24157e-22 -0.000469533)
(-0.00862837 1.89445e-21 -0.000485747)
(-0.00881943 -4.04832e-20 -0.000501931)
(-0.0090167 -4.84669e-20 -0.000518053)
(-0.00922016 -4.47059e-20 -0.000534081)
(-0.00942976 -4.50581e-20 -0.000549976)
(-0.00964545 -4.58678e-20 -0.000565697)
(-0.00986715 -5.60755e-20 -0.000581198)
(-0.0100948 -4.45735e-20 -0.000596426)
(-0.0103282 -5.13488e-20 -0.000611325)
(-0.0105672 -4.38056e-20 -0.000625833)
(-0.0108118 -5.30353e-20 -0.000639882)
(-0.0110616 -5.61543e-20 -0.000653399)
(-0.0113166 -5.65729e-20 -0.000666303)
(-0.0115764 4.34098e-20 -0.000678508)
(-0.0118407 -5.42433e-20 -0.00068992)
(-0.0121093 -6.57e-20 -0.000700439)
(-0.0123817 -6.35381e-20 -0.000709957)
(-0.0126576 -6.82181e-20 -0.00071836)
(-0.0129365 -6.49659e-20 -0.000725525)
(-0.013218 -6.84535e-20 -0.000731323)
(-0.0135014 -6.82436e-20 -0.000735617)
(-0.0137863 -6.31851e-20 -0.000738263)
(-0.0140719 -2.61477e-21 -0.000739112)
(-0.0143575 -6.92561e-20 -0.000738005)
(-0.0146424 -7.74582e-20 -0.00073478)
(-0.0149257 -6.5965e-20 -0.000729271)
(-0.0152066 -7.24254e-20 -0.000721303)
(-0.0154841 -7.67617e-20 -0.000710703)
(-0.0157571 -8.07699e-20 -0.000697292)
(-0.0160245 -7.74395e-20 -0.00068089)
(-0.0162853 -7.57317e-20 -0.000661321)
(-0.0165382 -8.38914e-20 -0.000638406)
(-0.0167818 -8.41908e-20 -0.000611973)
(-0.0170148 -7.40871e-20 -0.000581854)
(-0.0172358 -5.59575e-21 -0.000547889)
(-0.0174433 -6.19033e-20 -0.000509929)
(-0.0176358 1.55802e-19 -0.000467833)
(-0.0178117 -8.66741e-20 -0.000421477)
(-0.0179693 7.07643e-20 -0.000370752)
(-0.018107 -7.25129e-20 -0.000315569)
(-0.018223 9.87656e-20 -0.000255856)
(-0.0183157 -7.91728e-20 -0.000191566)
(-0.0183831 8.61495e-20 -0.000122687)
(-0.0184237 8.76575e-20 -4.92434e-05)
(-0.0184355 -7.6136e-20 2.87842e-05)
(-0.0184169 7.54189e-20 0.000111302)
(-0.0183661 -6.14733e-20 0.000198157)
(-0.0182814 1.57564e-19 0.000289217)
(-0.0181611 -6.38917e-20 0.000384264)
(-0.0180036 8.04433e-20 0.000483011)
(-0.0178074 -7.70413e-20 0.00058505)
(-0.017571 8.61241e-20 0.000689828)
(-0.0172931 6.40458e-20 0.000797668)
(-0.0169738 -7.41984e-20 0.000906164)
(-0.0166093 6.64466e-20 0.00101388)
(-0.016197 -8.04218e-20 0.00112584)
(-0.0157376 7.22408e-20 0.0012398)
(-0.0152319 -5.91156e-20 0.00135523)
(-0.0146794 1.33547e-19 0.00147136)
(-0.0140791 -4.16979e-21 0.00158731)
(-0.0134306 -5.93065e-20 0.00170264)
(-0.0127342 1.07815e-19 0.00181692)
(-0.0119897 -4.63366e-20 0.00192974)
(-0.0111942 9.55615e-20 0.00203799)
(-0.0103524 -3.68955e-20 0.00216027)
(-0.00955312 3.49664e-20 0.0021998)
(-0.0091313 -4.511e-20 0.00239982)
(-0.00860444 8.20075e-22 0.00222656)
(-0.120522 6.30551e-20 0.00232926)
(-0.0355174 -3.8733e-20 -0.0767539)
(-0.0840752 1.40367e-20 -0.0117479)
(-0.0254401 -3.8313e-20 -0.0681345)
(-0.0332633 1.12073e-19 -0.0213699)
(-0.0173845 1.91604e-20 -0.0484032)
(-0.0171892 1.03093e-20 -0.0275593)
(-0.0103364 -1.28823e-19 -0.0384768)
(-0.0073157 1.2688e-20 -0.0326833)
(-0.00178492 7.66158e-20 -0.0341666)
(-0.00564487 -3.73621e-24 -9.43213e-06)
(-0.00566958 -9.8646e-23 -2.86174e-05)
(-0.00568063 -1.91194e-21 -4.78127e-05)
(-0.0056945 -2.32936e-20 -6.65848e-05)
(-0.005713 2.20304e-20 -8.54906e-05)
(-0.00573741 2.67791e-20 -0.000104607)
(-0.00576821 2.78942e-20 -0.000123847)
(-0.0058052 -3.44096e-22 -0.000143164)
(-0.00584805 -2.60881e-20 -0.000162559)
(-0.00589654 2.89663e-20 -0.000182043)
(-0.00595058 -2.63291e-20 -0.000201627)
(-0.00601017 -2.84578e-21 -0.000221322)
(-0.00607532 -2.18101e-20 -0.000241138)
(-0.00614607 2.46342e-20 -0.000261084)
(-0.00622245 -2.60848e-20 -0.000281168)
(-0.00630451 -2.60582e-21 -0.000301397)
(-0.00639228 -2.8779e-20 -0.000321777)
(-0.00648582 -3.30369e-20 -0.000342313)
(-0.00658516 -3.58331e-20 -0.000363008)
(-0.00669034 -2.95521e-20 -0.000383865)
(-0.00680143 -3.09182e-20 -0.000404883)
(-0.00691845 -2.8903e-20 -0.000426063)
(-0.00704146 8.51563e-22 -0.000447403)
(-0.0071705 3.59385e-20 -0.000468897)
(-0.00730561 -3.04691e-20 -0.000490539)
(-0.00744684 6.64429e-20 -0.00051232)
(-0.00759422 -7.41148e-20 -0.00053423)
(-0.00774778 -3.72007e-20 -0.000556254)
(-0.00790756 -3.36535e-20 -0.000578374)
(-0.00807358 -3.68127e-20 -0.000600571)
(-0.00824586 -3.95402e-20 -0.000622821)
(-0.00842442 2.03751e-21 -0.000645096)
(-0.00860925 6.81677e-20 -0.000667364)
(-0.00880035 4.02608e-20 -0.00068959)
(-0.00899772 1.29654e-21 -0.000711734)
(-0.00920131 4.57157e-20 -0.000733748)
(-0.0094111 4.93236e-20 -0.000755583)
(-0.00962702 4.52861e-20 -0.000777181)
(-0.00984901 4.81491e-20 -0.000798478)
(-0.010077 5.21408e-20 -0.000819404)
(-0.0103108 4.06255e-20 -0.000839883)
(-0.0105504 1.63716e-21 -0.00085983)
(-0.0107955 4.81059e-20 -0.000879152)
(-0.011046 5.45439e-20 -0.000897749)
(-0.0113017 6.40303e-20 -0.000915512)
(-0.0115624 5.32768e-20 -0.000932323)
(-0.0118277 5.82692e-20 -0.000948055)
(-0.0120974 6.33889e-20 -0.000962571)
(-0.0123711 2.74744e-21 -0.000975725)
(-0.0126484 5.78483e-20 -0.00098736)
(-0.0129288 6.08939e-20 -0.000997311)
(-0.013212 4.54219e-22 -0.0010054)
(-0.0134973 8.00893e-21 -0.00101144)
(-0.0137842 1.43233e-19 -0.00101524)
(-0.014072 4.14989e-22 -0.00101659)
(-0.01436 3.33564e-21 -0.00101528)
(-0.0146475 1.39073e-19 -0.00101109)
(-0.0149336 7.81322e-20 -0.00100378)
(-0.0152175 7.32275e-20 -0.000993126)
(-0.0154981 2.89164e-21 -0.000978885)
(-0.0157745 7.49957e-20 -0.000960814)
(-0.0160456 7.93414e-20 -0.000938669)
(-0.0163102 8.70866e-20 -0.000912205)
(-0.0165671 7.88654e-20 -0.000881181)
(-0.0168149 7.32144e-20 -0.00084536)
(-0.0170524 4.01877e-21 -0.000804511)
(-0.017278 7.94674e-21 -0.000758416)
(-0.0174903 9.63434e-20 -0.000706865)
(-0.0176877 1.92066e-20 -0.000649668)
(-0.0178687 7.77463e-20 -0.000586651)
(-0.0180315 -7.23368e-20 -0.000517661)
(-0.0181745 7.66754e-20 -0.000442571)
(-0.0182958 7.75994e-20 -0.000361278)
(-0.0183939 9.7151e-20 -0.000273712)
(-0.0184668 -5.85702e-20 -0.000179846)
(-0.0185127 1.20214e-19 -7.97031e-05)
(-0.0185299 8.76984e-20 2.67519e-05)
(-0.0185165 -7.15581e-20 0.000139406)
(-0.0184708 8.94768e-20 0.000258079)
(-0.018391 7.46678e-21 0.000382617)
(-0.0182753 7.7646e-20 0.00051277)
(-0.0181221 -8.58909e-20 0.000648214)
(-0.0179296 8.97655e-20 0.000788515)
(-0.0176965 7.17642e-20 0.000933541)
(-0.017422 -6.53881e-20 0.00108299)
(-0.0171039 8.80901e-20 0.00123297)
(-0.0167417 9.10522e-20 0.00138891)
(-0.0163328 7.92526e-20 0.00154868)
(-0.0158766 -6.14015e-20 0.00171099)
(-0.0153726 5.70507e-20 0.00187551)
(-0.0148206 1.2257e-20 0.00204131)
(-0.0142199 1.00347e-20 0.00220727)
(-0.0135705 4.40835e-20 0.00237249)
(-0.0128723 7.64393e-21 0.00253606)
(-0.0121254 5.40215e-20 0.00269725)
(-0.0113262 5.10261e-21 0.00285045)
(-0.0104779 4.43539e-20 0.00302971)
(-0.00965898 5.0624e-20 0.00307676)
(-0.00922904 4.98788e-20 0.0034413)
(-0.00876466 -8.55076e-22 0.00310232)
(-0.0869294 1.98273e-20 0.00360184)
(-0.0385118 1.18039e-19 -0.0389803)
(-0.0724229 -1.0448e-19 -0.00574636)
(-0.0290572 4.60388e-20 -0.0488456)
(-0.0371393 -3.95825e-20 -0.0166567)
(-0.0200542 -1.53355e-20 -0.039505)
(-0.0194835 -1.18498e-19 -0.0230455)
(-0.0114048 1.07692e-19 -0.0327502)
(-0.00800774 8.24794e-20 -0.0274988)
(-0.00243791 -7.07812e-20 -0.0288543)
(-0.0056232 -1.50034e-24 -1.20271e-05)
(-0.0056479 -3.61909e-23 -3.65349e-05)
(-0.00565899 -8.18775e-22 -6.1133e-05)
(-0.00567285 1.73903e-21 -8.52068e-05)
(-0.00569127 2.2184e-21 -0.000109426)
(-0.00571559 1.55389e-21 -0.00013388)
(-0.00574629 3.55392e-22 -0.00015847)
(-0.00578318 -3.08617e-21 -0.000183152)
(-0.00582592 -1.13751e-21 -0.000207935)
(-0.0058743 7.92026e-22 -0.000232837)
(-0.00592822 -3.54404e-21 -0.000257872)
(-0.00598767 3.02757e-21 -0.000283053)
(-0.00605268 9.38759e-22 -0.00030839)
(-0.00612327 4.87729e-22 -0.000333896)
(-0.00619949 9.53809e-22 -0.000359579)
(-0.00628138 2.99776e-21 -0.000385449)
(-0.00636898 2.96837e-21 -0.000411513)
(-0.00646234 4.61301e-21 -0.000437776)
(-0.0065615 -9.25136e-22 -0.000464243)
(-0.0066665 -4.0341e-21 -0.000490917)
(-0.0067774 5.40617e-21 -0.0005178)
(-0.00689424 1.05895e-21 -0.00054489)
(-0.00701707 5.14476e-21 -0.000572184)
(-0.00714594 -1.68357e-21 -0.000599678)
(-0.00728089 -3.18164e-22 -0.000627362)
(-0.00742196 8.51452e-22 -0.000655227)
(-0.0075692 -5.20341e-21 -0.000683257)
(-0.00772264 -1.51233e-22 -0.000711434)
(-0.00788232 -2.81195e-21 -0.000739738)
(-0.00804827 1.38929e-22 -0.000768143)
(-0.0082205 4.07204e-21 -0.000796618)
(-0.00839905 8.37092e-21 -0.000825129)
(-0.00858391 6.54849e-21 -0.000853637)
(-0.00877508 -2.59828e-21 -0.000882094)
(-0.00897256 4.87971e-21 -0.000910451)
(-0.00917633 1.537e-21 -0.000938649)
(-0.00938636 -2.11096e-23 -0.000966623)
(-0.00960258 5.1129e-21 -0.000994301)
(-0.00982495 -2.79285e-21 -0.0010216)
(-0.0100534 -2.37854e-22 -0.00104844)
(-0.0102878 1.88729e-21 -0.00107471)
(-0.010528 -1.15269e-20 -0.00110031)
(-0.0107739 2.15052e-21 -0.00112513)
(-0.0110253 -3.19341e-21 -0.00114903)
(-0.011282 3.31637e-21 -0.00117188)
(-0.0115438 -2.12037e-21 -0.00119352)
(-0.0118104 1.22028e-20 -0.0012138)
(-0.0120816 2.91699e-21 -0.00123254)
(-0.0123569 1.17739e-20 -0.00124955)
(-0.012636 2.95871e-21 -0.00126464)
(-0.0129185 -1.25384e-21 -0.0012776)
(-0.0132039 1.20193e-20 -0.0012882)
(-0.0134916 7.57104e-21 -0.00129619)
(-0.0137811 5.85119e-21 -0.00130135)
(-0.0140718 -9.74593e-21 -0.00130339)
(-0.014363 3.04995e-21 -0.00130205)
(-0.0146539 6.49864e-21 -0.00129705)
(-0.0149437 4.69479e-21 -0.00128809)
(-0.0152315 2.97623e-21 -0.00127487)
(-0.0155163 -2.12707e-22 -0.00125708)
(-0.0157972 3.42431e-21 -0.00123442)
(-0.0160731 4.11585e-21 -0.00120657)
(-0.0163427 4.79323e-21 -0.00117321)
(-0.0166049 -3.40969e-21 -0.00113404)
(-0.0168584 -4.04486e-22 -0.00108875)
(-0.0171017 -3.23375e-21 -0.00103704)
(-0.0173334 4.32729e-21 -0.000978624)
(-0.017552 1.57881e-22 -0.000913241)
(-0.017756 -8.50106e-21 -0.000840637)
(-0.0179436 4.02506e-21 -0.000760586)
(-0.0181133 -3.33425e-21 -0.000672888)
(-0.0182633 5.8565e-21 -0.000577373)
(-0.0183918 -1.14662e-20 -0.000473904)
(-0.018497 2.01716e-21 -0.000362383)
(-0.018577 -5.37497e-21 -0.000242763)
(-0.0186301 1.82546e-20 -0.00011507)
(-0.0186544 5.74309e-21 2.07569e-05)
(-0.0186481 -2.89814e-21 0.000164589)
(-0.0186092 5.62735e-21 0.000316218)
(-0.0185359 1.39429e-20 0.000475479)
(-0.0184265 6.14179e-21 0.000642094)
(-0.0182793 -5.00996e-21 0.000815709)
(-0.0180924 -4.08958e-22 0.000995971)
(-0.0178641 -1.62446e-21 0.00118315)
(-0.0175936 -8.08901e-21 0.00137361)
(-0.0172804 -6.51155e-21 0.00156863)
(-0.0169222 3.46821e-22 0.00177106)
(-0.0165172 1.3423e-20 0.00197727)
(-0.0160641 2.03535e-23 0.00218705)
(-0.0155621 1.14192e-21 0.0023997)
(-0.0150109 6.72551e-21 0.00261412)
(-0.01441 -2.44424e-20 0.00282908)
(-0.0137593 1.42513e-20 0.00304341)
(-0.0130588 2.62285e-21 0.00325589)
(-0.0123085 1.90631e-21 0.00346549)
(-0.0115044 -3.17734e-21 0.00366474)
(-0.0106498 -1.57526e-20 0.00390113)
(-0.00981675 -5.99412e-21 0.00396094)
(-0.00938123 6.822e-21 0.0044624)
(-0.00899447 1.43697e-19 0.00398035)
(-0.0711458 -8.02866e-21 0.00471603)
(-0.0379402 9.15951e-21 -0.0193787)
(-0.0611947 -5.11092e-20 -0.00133641)
(-0.0269048 -4.77301e-20 -0.033422)
(-0.0344713 6.20208e-20 -0.0121646)
(-0.0190322 -3.2265e-20 -0.0309402)
(-0.0184864 -9.35404e-21 -0.0188683)
(-0.0106154 3.96384e-20 -0.0272103)
(-0.00741912 -1.06558e-19 -0.0231412)
(-0.00230411 5.06631e-20 -0.0245039)
(-0.00559626 -1.48796e-24 -1.46378e-05)
(-0.00562089 -4.71948e-23 -4.44846e-05)
(-0.00563199 -1.03e-21 -7.44877e-05)
(-0.00564581 -1.37886e-21 -0.000103874)
(-0.00566417 6.18208e-21 -0.000133429)
(-0.0056884 1.76996e-21 -0.000163253)
(-0.00571898 -1.98491e-21 -0.000193226)
(-0.00575575 2.32465e-21 -0.000223305)
(-0.00579837 3.00361e-20 -0.000253507)
(-0.0058466 -5.61415e-21 -0.000283856)
(-0.00590036 2.54469e-20 -0.000314369)
(-0.00595965 2.40672e-21 -0.000345063)
(-0.00602447 2.70689e-20 -0.00037595)
(-0.00609488 3.95144e-21 -0.000407045)
(-0.00617089 2.4473e-20 -0.000438358)
(-0.00625257 2.92681e-21 -0.0004699)
(-0.00633995 3.74287e-20 -0.00050168)
(-0.00643308 2.36091e-20 -0.000533706)
(-0.00653201 -3.01178e-20 -0.000565983)
(-0.00663678 3.68457e-20 -0.000598514)
(-0.00674745 3.24207e-20 -0.000631303)
(-0.00686406 2.61787e-20 -0.000664347)
(-0.00698667 4.50931e-21 -0.000697643)
(-0.00711532 2.94163e-20 -0.000731186)
(-0.00725006 2.91112e-21 -0.000764965)
(-0.00739094 2.70309e-20 -0.000798968)
(-0.007538 -5.07873e-21 -0.000833178)
(-0.00769129 -2.60133e-20 -0.000867573)
(-0.00785084 4.58863e-20 -0.000902128)
(-0.00801669 4.01955e-20 -0.000936812)
(-0.00818887 3.48045e-20 -0.00097159)
(-0.00836739 4.09135e-21 -0.00100642)
(-0.00855227 4.8538e-20 -0.00104125)
(-0.00874353 -1.31078e-20 -0.00107603)
(-0.00894115 3.45171e-21 -0.0011107)
(-0.00914513 -6.41886e-21 -0.00114519)
(-0.00935544 1.81852e-21 -0.00117942)
(-0.00957203 -3.32477e-20 -0.00121329)
(-0.00979486 -1.62744e-20 -0.00124673)
(-0.0100238 4.46668e-21 -0.00127961)
(-0.0102589 1.32963e-21 -0.00131182)
(-0.0104999 5.45011e-21 -0.00134323)
(-0.0107468 9.46499e-21 -0.0013737)
(-0.0109993 6.07533e-21 -0.00140307)
(-0.0112572 2.52913e-20 -0.00143118)
(-0.0115205 3.72049e-20 -0.00145784)
(-0.0117887 -3.06989e-22 -0.00148287)
(-0.0120616 -5.19579e-21 -0.00150604)
(-0.012339 5.79558e-21 -0.00152713)
(-0.0126203 4.16997e-21 -0.0015459)
(-0.0129053 2.05645e-22 -0.0015621)
(-0.0131934 8.64451e-21 -0.00157544)
(-0.0134841 1.35352e-20 -0.00158565)
(-0.013777 -3.15458e-21 -0.00159241)
(-0.0140712 -7.89429e-20 -0.00159541)
(-0.0143663 4.74323e-21 -0.00159431)
(-0.0146614 -5.48978e-22 -0.00158877)
(-0.0149558 6.94818e-21 -0.00157843)
(-0.0152484 1.07851e-21 -0.00156292)
(-0.0155385 7.31982e-21 -0.00154185)
(-0.015825 1.46663e-21 -0.00151486)
(-0.0161068 4.11593e-21 -0.00148156)
(-0.0163827 -7.03246e-20 -0.00144154)
(-0.0166515 -1.19289e-20 -0.00139445)
(-0.0169119 2.13888e-21 -0.00133989)
(-0.0171625 1.53047e-20 -0.00127749)
(-0.0174018 7.29948e-21 -0.00120692)
(-0.0176283 7.9167e-21 -0.00112782)
(-0.0178404 6.24423e-20 -0.0010399)
(-0.0180365 4.2333e-22 -0.000942861)
(-0.0182147 -9.35532e-22 -0.000836457)
(-0.0183735 -1.12602e-20 -0.000720471)
(-0.0185108 6.34438e-20 -0.00059473)
(-0.018625 -1.15088e-20 -0.000459102)
(-0.0187141 -1.27526e-20 -0.000313517)
(-0.0187763 8.35661e-20 -0.000157993)
(-0.0188095 1.37794e-20 7.54572e-06)
(-0.018812 -7.7918e-21 0.000182958)
(-0.0187817 -1.96541e-20 0.000368028)
(-0.0187168 7.99131e-20 0.000562572)
(-0.0186155 9.09322e-21 0.000766276)
(-0.0184759 1.83475e-21 0.000978752)
(-0.0182961 -2.23867e-20 0.00119993)
(-0.0180741 7.39636e-20 0.00142784)
(-0.0178089 5.66105e-21 0.00166008)
(-0.0175016 -3.9211e-20 0.00190145)
(-0.017149 6.24001e-20 0.00214956)
(-0.0167487 1.2799e-20 0.00240275)
(-0.0162992 3.40758e-21 0.00266057)
(-0.0157999 -1.62477e-20 0.00292202)
(-0.0152501 6.69056e-20 0.00318584)
(-0.0146493 1.53683e-20 0.00345066)
(-0.0139974 -1.30974e-20 0.00371505)
(-0.0132943 5.44906e-20 0.00397751)
(-0.0125401 1.06851e-22 0.00423665)
(-0.0117303 5.20897e-20 0.00448333)
(-0.0108696 -3.31434e-21 0.00477683)
(-0.0100219 4.01345e-20 0.00485178)
(-0.00957548 3.71319e-20 0.00548001)
(-0.00922989 7.08484e-21 0.00487922)
(-0.0608587 5.8646e-20 0.00585066)
(-0.0376734 3.17527e-19 -0.0104767)
(-0.0511554 7.21531e-22 0.00118584)
(-0.0257812 3.49841e-20 -0.0228754)
(-0.0319992 1.026e-19 -0.00828871)
(-0.0189763 -1.97059e-20 -0.0235259)
(-0.0180506 -4.90513e-20 -0.0146102)
(-0.0107456 3.2366e-20 -0.0216622)
(-0.00737805 6.44048e-20 -0.0184799)
(-0.0025074 -4.50052e-20 -0.0197005)
(-0.00556404 -1.27028e-24 -1.72508e-05)
(-0.00558856 -3.66478e-23 -5.24335e-05)
(-0.00559964 -6.25328e-22 -8.78242e-05)
(-0.00561342 1.22368e-21 -0.000122503)
(-0.0056317 1.80129e-21 -0.000157379)
(-0.00565583 2.10972e-22 -0.000192565)
(-0.0056863 -6.69185e-22 -0.000227918)
(-0.00572292 -3.92156e-21 -0.000263391)
(-0.00576538 -2.41455e-20 -0.000299009)
(-0.00581344 -2.89477e-20 -0.0003348)
(-0.00586701 -2.43647e-20 -0.000370788)
(-0.00592609 -1.03037e-21 -0.000406991)
(-0.0059907 -2.51166e-20 -0.000443426)
(-0.00606087 -3.39554e-20 -0.000480107)
(-0.00613664 -3.5395e-20 -0.00051705)
(-0.00621806 -6.32228e-21 -0.000554265)
(-0.00630518 -3.18128e-20 -0.000591765)
(-0.00639804 -3.45427e-20 -0.000629558)
(-0.00649669 -2.41548e-21 -0.000667651)
(-0.00660118 -2.59942e-20 -0.000706049)
(-0.00671156 -3.10071e-20 -0.000744754)
(-0.0068279 -3.17676e-20 -0.000783766)
(-0.00695023 3.789e-21 -0.000823082)
(-0.00707861 -3.82045e-20 -0.000862694)
(-0.0072131 4.81928e-22 -0.000902592)
(-0.00735374 -3.88015e-20 -0.000942762)
(-0.00750059 6.05924e-20 -0.000983183)
(-0.00765369 1.04737e-20 -0.00102383)
(-0.00781308 -2.94624e-20 -0.00106468)
(-0.0079788 -3.69486e-20 -0.00110569)
(-0.00815089 -3.61367e-20 -0.00114682)
(-0.00832938 6.05508e-21 -0.00118803)
(-0.00851428 -3.5512e-20 -0.00122925)
(-0.00870562 -8.86229e-21 -0.00127043)
(-0.0089034 8.36696e-20 -0.00131149)
(-0.00910761 7.04395e-21 -0.00135236)
(-0.00931824 7.52179e-20 -0.00139293)
(-0.00953526 7.02922e-21 -0.00143312)
(-0.00975862 4.15337e-21 -0.0014728)
(-0.00998827 9.86109e-20 -0.00151185)
(-0.0102241 8.74631e-21 -0.00155013)
(-0.0104661 1.17577e-19 -0.0015875)
(-0.010714 8.87851e-21 -0.00162379)
(-0.0109678 1.05156e-19 -0.00165881)
(-0.0112272 9.85442e-21 -0.00169237)
(-0.0114921 -5.45073e-20 -0.00172426)
(-0.0117622 1.16082e-19 -0.00175425)
(-0.0120373 9.4231e-21 -0.00178208)
(-0.012317 1.17209e-19 -0.0018075)
(-0.012601 9.33157e-21 -0.00183021)
(-0.0128889 1.18489e-19 -0.00184993)
(-0.0131803 1.37563e-19 -0.00186631)
(-0.0134746 1.50759e-19 -0.00187903)
(-0.0137714 -5.79045e-21 -0.00188772)
(-0.0140699 1.28339e-21 -0.001892)
(-0.0143696 1.58716e-19 -0.00189149)
(-0.0146697 9.57306e-21 -0.00188576)
(-0.0149695 1.38648e-19 -0.0018744)
(-0.015268 1.27828e-20 -0.00185695)
(-0.0155644 1.54417e-19 -0.00183299)
(-0.0158575 1.24892e-20 -0.00180204)
(-0.0161464 1.43134e-19 -0.00176364)
(-0.0164298 6.91873e-21 -0.00171734)
(-0.0167066 6.89483e-21 -0.00166267)
(-0.0169753 1.62914e-19 -0.00159918)
(-0.0172346 1.80156e-19 -0.00152643)
(-0.017483 9.33438e-21 -0.001444)
(-0.017719 -6.31348e-21 -0.00135147)
(-0.0179409 -5.4363e-20 -0.00124847)
(-0.0181471 -1.13847e-20 -0.00113465)
(-0.0183357 6.48568e-21 -0.00100971)
(-0.018505 1.51947e-21 -0.000873379)
(-0.0186531 -8.30505e-20 -0.00072544)
(-0.0187782 -1.224e-20 -0.000565726)
(-0.0188782 2.1038e-21 -0.000394139)
(-0.0189512 -9.01764e-20 -0.000210688)
(-0.0189953 -7.0332e-21 -1.52785e-05)
(-0.0190085 5.92473e-21 0.000191948)
(-0.0189888 -8.04328e-21 0.000410758)
(-0.0189342 -8.27516e-20 0.000640954)
(-0.0188427 3.04485e-22 0.000882166)
(-0.0187125 3.97473e-21 0.00113404)
(-0.0185408 -1.94292e-20 0.00139531)
(-0.0183255 -4.88314e-20 0.00166282)
(-0.0180687 1.56261e-21 0.00193983)
(-0.0177688 -2.76097e-20 0.00222747)
(-0.0174228 -7.30115e-20 0.00252231)
(-0.0170281 2.09845e-20 0.00282368)
(-0.0165833 2.57461e-21 0.00313072)
(-0.0160874 -2.58874e-20 0.00344222)
(-0.0155395 -4.45457e-20 0.00375679)
(-0.0149392 -1.66834e-20 0.00407286)
(-0.0142862 -1.10908e-20 0.00438877)
(-0.0135803 -5.45488e-20 0.00470275)
(-0.0128215 -4.59011e-21 0.00501301)
(-0.0120053 -4.46916e-20 0.00530875)
(-0.0111376 -3.24792e-20 0.00566058)
(-0.0102733 -4.73575e-20 0.005752)
(-0.0098142 2.48049e-20 0.00650368)
(-0.00949555 1.78748e-19 0.00579234)
(-0.0539416 -1.31158e-19 0.00697696)
(-0.036477 3.0739e-19 -0.00503248)
(-0.043837 1.71352e-20 0.00305847)
(-0.0236237 -1.44967e-20 -0.0149658)
(-0.0288169 -3.50198e-20 -0.00487024)
(-0.0177471 -3.79851e-20 -0.0170497)
(-0.0167075 -2.89827e-20 -0.0106269)
(-0.0101062 6.24081e-20 -0.0165033)
(-0.0068697 -4.81968e-20 -0.014158)