/*--------------------------------*- C++ -*----------------------------------*\
| =========                 |                                                 |
| \\      /  F ield         | OpenFOAM: The Open Source CFD Toolbox           |
|  \\    /   O peration     | Version:  v2106                                 |
|   \\  /    A nd           | Website:  www.openfoam.com                      |
|    \\/     M anipulation  |                                                 |
\*---------------------------------------------------------------------------*/
FoamFile
{
    version     2.0;
    format      ascii;
    arch        "LSB;label=32;scalar=64";
    class       volScalarField;
    location    "0.7";
    object      k;
}
// * * * * * * * * * * * * * * * * * * * * * * * * * * * * * * * * * * * * * //

dimensions      [0 2 -2 0 0 0 0];

internalField   nonuniform List<scalar> 
29678
(
0.00014207
0.000198473
0.000209125
0.000212077
0.000213178
0.000213656
0.000213874
0.000213971
0.000214014
0.000214033
0.000214044
0.000214051
0.000214059
0.000214066
0.000214075
0.000214083
0.000214093
0.000214103
0.000214114
0.000214126
0.000214138
0.000214151
0.000214165
0.000214179
0.000214194
0.00021421
0.000214227
0.000214244
0.000214262
0.000214281
0.0002143
0.000214319
0.000214339
0.000214359
0.000214379
0.000214399
0.00021442
0.00021444
0.00021446
0.00021448
0.0002145
0.000214519
0.000214537
0.000214554
0.00021457
0.000214585
0.000214598
0.000214611
0.000214622
0.000214631
0.00021464
0.000214646
0.00021465
0.000214653
0.000214653
0.000214651
0.000214647
0.00021464
0.00021463
0.000214617
0.0002146
0.000214581
0.000214557
0.00021453
0.000214499
0.000214467
0.000214431
0.000214394
0.000214355
0.000214315
0.000214275
0.000214236
0.0002142
0.000214167
0.00021414
0.000214119
0.000214105
0.0002141
0.000214105
0.000214121
0.00021415
0.000214193
0.00021425
0.000214322
0.000214408
0.000214508
0.000214619
0.000214738
0.000214864
0.000214994
0.000215125
0.000215257
0.000215389
0.000215523
0.000215659
0.000215792
0.000215947
0.000216373
0.000219202
0.000246979
0.00023677
0.000239077
0.000232564
0.00022917
0.000226745
0.000224041
0.000224655
0.000224226
0.000223055
0.000220272
0.000142065
0.000198474
0.000209127
0.000212079
0.00021318
0.00021366
0.000213879
0.000213977
0.000214022
0.000214043
0.000214055
0.000214065
0.000214075
0.000214085
0.000214096
0.000214108
0.000214121
0.000214134
0.000214149
0.000214164
0.000214181
0.000214198
0.000214216
0.000214236
0.000214256
0.000214277
0.000214299
0.000214322
0.000214346
0.00021437
0.000214394
0.000214418
0.000214441
0.000214464
0.000214487
0.000214509
0.000214532
0.000214554
0.000214575
0.000214596
0.000214617
0.000214636
0.000214656
0.000214674
0.000214691
0.000214708
0.000214723
0.000214737
0.000214749
0.00021476
0.000214768
0.000214775
0.00021478
0.000214783
0.000214783
0.000214781
0.000214776
0.000214768
0.000214757
0.000214743
0.000214725
0.000214704
0.00021468
0.000214653
0.000214622
0.000214588
0.000214551
0.00021451
0.000214467
0.00021442
0.00021437
0.000214322
0.000214275
0.000214233
0.000214197
0.000214169
0.000214149
0.00021414
0.000214143
0.00021416
0.000214192
0.00021424
0.000214306
0.000214389
0.000214488
0.000214602
0.000214726
0.000214859
0.000214997
0.00021514
0.000215287
0.000215437
0.000215589
0.000215743
0.0002159
0.000216049
0.000216186
0.000216569
0.00021863
0.000234028
0.000233896
0.000235778
0.000231003
0.00023
0.000227038
0.000225433
0.000224595
0.000223804
0.00022248
0.000219948
0.000142067
0.000198476
0.000209128
0.000212081
0.000213183
0.000213664
0.000213883
0.000213983
0.000214029
0.000214051
0.000214065
0.000214077
0.000214089
0.000214101
0.000214114
0.000214128
0.000214143
0.000214159
0.000214177
0.000214195
0.000214215
0.000214236
0.000214258
0.000214281
0.000214305
0.00021433
0.000214357
0.000214383
0.000214409
0.000214435
0.000214461
0.000214487
0.000214513
0.000214539
0.000214564
0.000214589
0.000214614
0.000214638
0.000214662
0.000214685
0.000214708
0.00021473
0.000214751
0.000214771
0.000214791
0.000214809
0.000214825
0.00021484
0.000214854
0.000214866
0.000214875
0.000214883
0.000214889
0.000214892
0.000214892
0.00021489
0.000214884
0.000214876
0.000214864
0.000214849
0.00021483
0.000214808
0.000214782
0.000214752
0.000214719
0.000214682
0.000214642
0.000214598
0.000214551
0.000214502
0.000214451
0.000214398
0.000214344
0.000214295
0.000214252
0.000214219
0.000214196
0.000214186
0.00021419
0.00021421
0.000214248
0.000214305
0.000214382
0.000214479
0.000214593
0.000214721
0.000214859
0.000215004
0.000215154
0.000215309
0.000215468
0.00021563
0.000215794
0.000215959
0.000216124
0.00021627
0.000216366
0.000216613
0.000218237
0.000229543
0.000230823
0.000232691
0.000228297
0.000229127
0.000225787
0.000225399
0.000224309
0.000223586
0.000222385
0.000220085
0.000142067
0.000198479
0.000209131
0.000212084
0.000213186
0.000213668
0.000213888
0.000213989
0.000214035
0.000214058
0.000214073
0.000214085
0.000214098
0.000214111
0.000214125
0.000214141
0.000214157
0.000214175
0.000214194
0.000214214
0.000214235
0.000214258
0.000214282
0.000214307
0.000214333
0.000214361
0.000214389
0.000214416
0.000214444
0.000214471
0.000214498
0.000214525
0.000214552
0.000214579
0.000214605
0.000214631
0.000214657
0.000214682
0.000214707
0.000214731
0.000214754
0.000214777
0.000214799
0.00021482
0.00021484
0.000214858
0.000214875
0.000214891
0.000214905
0.000214917
0.000214928
0.000214936
0.000214942
0.000214945
0.000214946
0.000214944
0.00021494
0.000214932
0.00021492
0.000214906
0.000214888
0.000214866
0.000214841
0.000214811
0.000214778
0.000214742
0.000214702
0.000214658
0.000214612
0.000214563
0.000214512
0.00021446
0.000214407
0.000214356
0.000214312
0.000214277
0.000214255
0.000214246
0.000214253
0.000214278
0.000214322
0.000214387
0.000214473
0.000214579
0.000214701
0.000214835
0.000214977
0.000215125
0.000215277
0.000215432
0.000215591
0.000215751
0.000215913
0.000216075
0.000216238
0.000216388
0.000216482
0.000216662
0.000217996
0.000227062
0.000228464
0.000228608
0.000227248
0.000227877
0.000225321
0.000225495
0.000224402
0.000223955
0.000222842
0.00022062
0.000142066
0.000198482
0.000209133
0.000212087
0.00021319
0.000213672
0.000213893
0.000213994
0.00021404
0.000214064
0.000214079
0.000214092
0.000214105
0.000214118
0.000214133
0.000214149
0.000214166
0.000214185
0.000214204
0.000214225
0.000214247
0.000214271
0.000214296
0.000214322
0.000214349
0.000214377
0.000214405
0.000214433
0.000214461
0.000214489
0.000214516
0.000214544
0.000214571
0.000214598
0.000214624
0.000214651
0.000214677
0.000214702
0.000214727
0.000214752
0.000214776
0.000214799
0.000214821
0.000214842
0.000214862
0.000214881
0.000214899
0.000214915
0.000214929
0.000214942
0.000214953
0.000214962
0.000214968
0.000214972
0.000214974
0.000214973
0.000214969
0.000214962
0.000214952
0.000214939
0.000214922
0.000214901
0.000214877
0.00021485
0.000214819
0.000214784
0.000214746
0.000214705
0.000214661
0.000214616
0.000214568
0.00021452
0.000214472
0.000214424
0.000214382
0.000214349
0.000214329
0.000214324
0.000214335
0.000214364
0.000214413
0.000214483
0.000214574
0.000214682
0.000214805
0.000214937
0.000215076
0.00021522
0.000215367
0.000215518
0.000215671
0.000215827
0.000215984
0.000216145
0.000216307
0.000216464
0.000216564
0.000216702
0.00021782
0.000225801
0.000227061
0.000226929
0.000226481
0.000226841
0.000224732
0.00022519
0.00022417
0.000223962
0.000222967
0.000220954
0.000142063
0.000198485
0.000209136
0.000212091
0.000213195
0.000213677
0.000213898
0.000213999
0.000214045
0.000214069
0.000214085
0.000214098
0.000214111
0.000214125
0.00021414
0.000214156
0.000214173
0.000214192
0.000214212
0.000214233
0.000214256
0.00021428
0.000214305
0.000214331
0.000214359
0.000214387
0.000214415
0.000214443
0.000214471
0.000214499
0.000214527
0.000214554
0.000214581
0.000214608
0.000214635
0.000214662
0.000214688
0.000214714
0.000214739
0.000214764
0.000214788
0.000214811
0.000214833
0.000214855
0.000214875
0.000214895
0.000214913
0.000214929
0.000214944
0.000214958
0.000214969
0.000214979
0.000214986
0.000214992
0.000214994
0.000214994
0.000214991
0.000214986
0.000214977
0.000214965
0.00021495
0.000214932
0.00021491
0.000214884
0.000214856
0.000214824
0.000214789
0.000214751
0.000214711
0.00021467
0.000214627
0.000214585
0.000214543
0.000214503
0.000214466
0.000214437
0.000214421
0.00021442
0.000214435
0.000214468
0.00021452
0.000214592
0.000214683
0.00021479
0.000214909
0.000215036
0.000215168
0.000215306
0.000215448
0.000215594
0.000215744
0.000215896
0.000216052
0.000216213
0.000216376
0.000216539
0.000216641
0.000216759
0.00021771
0.00022502
0.000226217
0.000226077
0.000225783
0.000225957
0.0002243
0.00022494
0.000224069
0.000224055
0.000223213
0.000221376
0.000142059
0.000198489
0.00020914
0.000212095
0.0002132
0.000213683
0.000213904
0.000214005
0.000214052
0.000214075
0.000214091
0.000214104
0.000214117
0.000214131
0.000214146
0.000214163
0.00021418
0.000214199
0.000214219
0.00021424
0.000214263
0.000214287
0.000214313
0.00021434
0.000214368
0.000214396
0.000214423
0.000214451
0.000214479
0.000214507
0.000214535
0.000214562
0.000214589
0.000214616
0.000214643
0.00021467
0.000214696
0.000214722
0.000214748
0.000214773
0.000214797
0.000214821
0.000214844
0.000214866
0.000214887
0.000214907
0.000214925
0.000214943
0.000214958
0.000214973
0.000214985
0.000214995
0.000215004
0.00021501
0.000215014
0.000215015
0.000215014
0.00021501
0.000215003
0.000214993
0.00021498
0.000214963
0.000214944
0.000214921
0.000214895
0.000214867
0.000214835
0.000214801
0.000214766
0.000214729
0.000214692
0.000214656
0.000214621
0.00021459
0.000214562
0.00021454
0.000214529
0.000214532
0.000214551
0.000214587
0.000214641
0.000214712
0.000214801
0.000214905
0.000215018
0.000215137
0.000215263
0.000215394
0.000215531
0.000215674
0.000215821
0.000215972
0.000216127
0.000216289
0.000216454
0.000216621
0.000216725
0.000216837
0.000217663
0.000224514
0.000225652
0.000225641
0.000225301
0.000225309
0.000223921
0.000224648
0.000223877
0.00022399
0.000223267
0.000221665
0.000142052
0.000198492
0.000209144
0.0002121
0.000213206
0.000213689
0.000213911
0.000214012
0.000214059
0.000214083
0.000214098
0.000214111
0.000214125
0.000214139
0.000214154
0.00021417
0.000214188
0.000214207
0.000214227
0.000214248
0.000214271
0.000214295
0.000214321
0.000214348
0.000214376
0.000214404
0.000214431
0.000214459
0.000214487
0.000214515
0.000214542
0.00021457
0.000214597
0.000214624
0.000214651
0.000214678
0.000214705
0.000214731
0.000214757
0.000214782
0.000214807
0.000214831
0.000214854
0.000214877
0.000214899
0.000214919
0.000214938
0.000214957
0.000214973
0.000214988
0.000215002
0.000215013
0.000215023
0.000215031
0.000215036
0.000215039
0.000215039
0.000215037
0.000215031
0.000215024
0.000215013
0.000214999
0.000214982
0.000214962
0.000214939
0.000214914
0.000214887
0.000214857
0.000214827
0.000214795
0.000214764
0.000214734
0.000214707
0.000214684
0.000214666
0.000214653
0.000214648
0.000214656
0.000214678
0.000214715
0.000214769
0.00021484
0.000214926
0.000215024
0.00021513
0.000215242
0.000215361
0.000215487
0.000215621
0.00021576
0.000215905
0.000216055
0.000216211
0.000216374
0.00021654
0.000216713
0.000216819
0.000216931
0.000217659
0.000224163
0.000225252
0.000225346
0.000225023
0.000224741
0.000223564
0.00022434
0.000223665
0.00022388
0.000223261
0.000221901
0.000142043
0.000198495
0.000209148
0.000212106
0.000213213
0.000213697
0.000213919
0.00021402
0.000214067
0.000214091
0.000214106
0.000214119
0.000214133
0.000214147
0.000214162
0.000214178
0.000214196
0.000214215
0.000214235
0.000214257
0.00021428
0.000214304
0.00021433
0.000214357
0.000214385
0.000214412
0.00021444
0.000214468
0.000214495
0.000214523
0.00021455
0.000214578
0.000214605
0.000214633
0.00021466
0.000214687
0.000214714
0.00021474
0.000214767
0.000214792
0.000214818
0.000214842
0.000214866
0.000214889
0.000214912
0.000214933
0.000214953
0.000214972
0.00021499
0.000215006
0.000215021
0.000215033
0.000215044
0.000215053
0.00021506
0.000215065
0.000215067
0.000215067
0.000215064
0.000215058
0.000215049
0.000215038
0.000215024
0.000215008
0.000214989
0.000214967
0.000214944
0.000214919
0.000214894
0.000214868
0.000214843
0.000214819
0.000214799
0.000214782
0.000214772
0.000214769
0.000214772
0.000214784
0.000214808
0.000214847
0.000214901
0.00021497
0.000215052
0.000215144
0.000215243
0.000215349
0.000215463
0.000215586
0.000215716
0.000215853
0.000215996
0.000216146
0.000216304
0.000216468
0.000216636
0.000216815
0.000216923
0.000217043
0.000217691
0.000223916
0.000224967
0.000225114
0.000224888
0.000224247
0.00022327
0.000224033
0.000223439
0.000223725
0.000223176
0.000222043
0.000142032
0.000198499
0.000209152
0.000212112
0.00021322
0.000213705
0.000213927
0.000214029
0.000214076
0.0002141
0.000214115
0.000214128
0.000214142
0.000214156
0.000214171
0.000214188
0.000214205
0.000214224
0.000214245
0.000214266
0.000214289
0.000214314
0.00021434
0.000214367
0.000214394
0.000214422
0.000214449
0.000214477
0.000214504
0.000214532
0.000214559
0.000214587
0.000214615
0.000214642
0.00021467
0.000214697
0.000214724
0.000214751
0.000214777
0.000214804
0.000214829
0.000214854
0.000214879
0.000214903
0.000214926
0.000214948
0.000214969
0.000214989
0.000215008
0.000215025
0.000215041
0.000215056
0.000215068
0.000215079
0.000215087
0.000215094
0.000215098
0.0002151
0.000215099
0.000215096
0.00021509
0.000215082
0.000215071
0.000215058
0.000215043
0.000215026
0.000215007
0.000214987
0.000214966
0.000214946
0.000214926
0.000214909
0.000214894
0.000214884
0.00021488
0.000214882
0.000214892
0.000214909
0.000214936
0.000214977
0.000215031
0.000215098
0.000215176
0.000215262
0.000215356
0.000215458
0.000215569
0.000215688
0.000215816
0.000215952
0.000216095
0.000216245
0.000216404
0.000216571
0.000216742
0.000216928
0.000217038
0.000217172
0.000217753
0.000223743
0.000224764
0.000224927
0.00022483
0.000223826
0.000223056
0.000223726
0.000223215
0.000223538
0.000223022
0.000222053
0.00014202
0.000198502
0.000209157
0.000212119
0.000213229
0.000213714
0.000213937
0.000214039
0.000214086
0.000214109
0.000214125
0.000214138
0.000214152
0.000214166
0.000214181
0.000214198
0.000214215
0.000214235
0.000214255
0.000214277
0.0002143
0.000214325
0.000214351
0.000214378
0.000214405
0.000214432
0.000214459
0.000214487
0.000214514
0.000214542
0.000214569
0.000214597
0.000214625
0.000214652
0.00021468
0.000214708
0.000214735
0.000214762
0.000214789
0.000214816
0.000214842
0.000214868
0.000214893
0.000214918
0.000214942
0.000214965
0.000214987
0.000215008
0.000215028
0.000215047
0.000215064
0.00021508
0.000215094
0.000215107
0.000215117
0.000215126
0.000215132
0.000215137
0.000215139
0.000215138
0.000215135
0.00021513
0.000215123
0.000215114
0.000215102
0.000215089
0.000215075
0.000215059
0.000215044
0.000215028
0.000215014
0.000215002
0.000214993
0.000214989
0.000214989
0.000214995
0.000215009
0.000215031
0.000215062
0.000215105
0.000215159
0.000215223
0.000215297
0.00021538
0.00021547
0.000215569
0.000215678
0.000215795
0.000215922
0.000216056
0.000216199
0.000216351
0.000216513
0.000216683
0.000216858
0.000217052
0.000217166
0.000217318
0.000217846
0.000223625
0.000224621
0.000224781
0.000224818
0.000223498
0.000222895
0.000223413
0.000223013
0.000223322
0.000222798
0.000221857
0.000142005
0.000198506
0.000209162
0.000212126
0.000213237
0.000213724
0.000213947
0.000214049
0.000214096
0.00021412
0.000214136
0.000214149
0.000214162
0.000214177
0.000214192
0.000214209
0.000214227
0.000214246
0.000214266
0.000214288
0.000214312
0.000214337
0.000214363
0.000214389
0.000214416
0.000214443
0.00021447
0.000214497
0.000214525
0.000214552
0.00021458
0.000214608
0.000214636
0.000214663
0.000214691
0.000214719
0.000214747
0.000214775
0.000214802
0.000214829
0.000214856
0.000214883
0.000214909
0.000214934
0.000214959
0.000214983
0.000215007
0.000215029
0.00021505
0.000215071
0.00021509
0.000215107
0.000215123
0.000215138
0.00021515
0.000215161
0.00021517
0.000215177
0.000215182
0.000215184
0.000215185
0.000215183
0.000215179
0.000215174
0.000215166
0.000215157
0.000215147
0.000215137
0.000215126
0.000215116
0.000215107
0.0002151
0.000215096
0.000215095
0.0002151
0.00021511
0.000215127
0.000215153
0.000215188
0.000215232
0.000215286
0.000215348
0.000215419
0.000215498
0.000215586
0.000215683
0.00021579
0.000215906
0.000216032
0.000216166
0.00021631
0.000216464
0.000216629
0.000216803
0.000216983
0.000217189
0.000217308
0.000217482
0.000217968
0.000223552
0.000224525
0.00022467
0.000224843
0.000223268
0.00022273
0.000223097
0.000222791
0.000223062
0.000222344
0.000221526
0.000141988
0.000198509
0.000209168
0.000212134
0.000213247
0.000213735
0.000213959
0.000214061
0.000214108
0.000214132
0.000214147
0.000214161
0.000214174
0.000214189
0.000214204
0.000214221
0.000214239
0.000214258
0.000214279
0.000214301
0.000214324
0.00021435
0.000214375
0.000214402
0.000214428
0.000214455
0.000214482
0.000214509
0.000214536
0.000214564
0.000214591
0.000214619
0.000214647
0.000214675
0.000214704
0.000214732
0.00021476
0.000214788
0.000214816
0.000214844
0.000214871
0.000214899
0.000214926
0.000214952
0.000214978
0.000215003
0.000215028
0.000215052
0.000215074
0.000215096
0.000215117
0.000215136
0.000215154
0.000215171
0.000215186
0.000215199
0.000215211
0.00021522
0.000215228
0.000215234
0.000215238
0.00021524
0.00021524
0.000215238
0.000215235
0.000215231
0.000215225
0.000215219
0.000215213
0.000215208
0.000215204
0.000215201
0.000215202
0.000215206
0.000215214
0.000215228
0.000215249
0.000215278
0.000215315
0.00021536
0.000215413
0.000215474
0.000215543
0.00021562
0.000215705
0.0002158
0.000215905
0.00021602
0.000216145
0.00021628
0.000216426
0.000216583
0.000216752
0.000216932
0.000217119
0.000217337
0.000217463
0.000217665
0.00021812
0.000223515
0.000224467
0.000224594
0.000224909
0.000223127
0.000222549
0.000222762
0.000222294
0.000222669
0.000221557
0.000220995
0.00014197
0.000198513
0.000209173
0.000212142
0.000213257
0.000213746
0.000213971
0.000214073
0.00021412
0.000214144
0.00021416
0.000214173
0.000214187
0.000214201
0.000214217
0.000214233
0.000214252
0.000214271
0.000214292
0.000214314
0.000214338
0.000214363
0.000214389
0.000214415
0.000214441
0.000214467
0.000214494
0.000214521
0.000214548
0.000214576
0.000214604
0.000214632
0.00021466
0.000214688
0.000214717
0.000214745
0.000214774
0.000214802
0.000214831
0.000214859
0.000214888
0.000214916
0.000214944
0.000214971
0.000214998
0.000215025
0.000215051
0.000215076
0.0002151
0.000215124
0.000215146
0.000215168
0.000215188
0.000215207
0.000215224
0.00021524
0.000215255
0.000215267
0.000215278
0.000215288
0.000215295
0.000215301
0.000215305
0.000215307
0.000215309
0.000215309
0.000215308
0.000215307
0.000215306
0.000215305
0.000215306
0.000215308
0.000215313
0.000215321
0.000215334
0.000215351
0.000215375
0.000215406
0.000215445
0.00021549
0.000215543
0.000215603
0.000215669
0.000215744
0.000215827
0.00021592
0.000216023
0.000216137
0.000216262
0.000216399
0.000216546
0.000216707
0.000216881
0.000217069
0.000217265
0.000217498
0.000217634
0.000217867
0.000218304
0.000223508
0.000224443
0.000224552
0.000225016
0.000223061
0.000222352
0.000222361
0.000221755
0.000221829
0.000220778
0.000220094
0.000141949
0.000198516
0.000209179
0.000212151
0.000213268
0.000213759
0.000213984
0.000214086
0.000214133
0.000214157
0.000214173
0.000214187
0.0002142
0.000214215
0.00021423
0.000214247
0.000214265
0.000214285
0.000214306
0.000214329
0.000214353
0.000214377
0.000214403
0.000214428
0.000214454
0.00021448
0.000214507
0.000214534
0.000214561
0.000214589
0.000214616
0.000214645
0.000214673
0.000214702
0.00021473
0.000214759
0.000214788
0.000214818
0.000214847
0.000214876
0.000214905
0.000214934
0.000214963
0.000214992
0.00021502
0.000215048
0.000215075
0.000215102
0.000215128
0.000215153
0.000215178
0.000215202
0.000215224
0.000215245
0.000215266
0.000215284
0.000215302
0.000215318
0.000215332
0.000215345
0.000215356
0.000215366
0.000215375
0.000215382
0.000215387
0.000215392
0.000215396
0.0002154
0.000215404
0.000215408
0.000215413
0.00021542
0.00021543
0.000215442
0.000215459
0.00021548
0.000215506
0.000215539
0.000215579
0.000215625
0.000215677
0.000215735
0.000215799
0.000215871
0.000215951
0.000216041
0.000216142
0.000216255
0.000216381
0.00021652
0.00021667
0.000216836
0.000217018
0.000217215
0.000217421
0.000217672
0.000217821
0.00021809
0.000218522
0.000223531
0.00022445
0.000224542
0.000225155
0.000223052
0.000222116
0.00022168
0.000221233
0.00022098
0.000220048
0.000219245
0.000141927
0.000198519
0.000209186
0.00021216
0.00021328
0.000213771
0.000213997
0.0002141
0.000214147
0.000214172
0.000214187
0.000214201
0.000214214
0.000214229
0.000214245
0.000214262
0.00021428
0.0002143
0.000214321
0.000214344
0.000214368
0.000214392
0.000214417
0.000214442
0.000214468
0.000214494
0.00021452
0.000214547
0.000214574
0.000214602
0.00021463
0.000214658
0.000214687
0.000214716
0.000214745
0.000214774
0.000214804
0.000214834
0.000214864
0.000214894
0.000214924
0.000214954
0.000214984
0.000215013
0.000215043
0.000215072
0.000215101
0.00021513
0.000215158
0.000215185
0.000215212
0.000215238
0.000215263
0.000215287
0.00021531
0.000215332
0.000215352
0.000215372
0.00021539
0.000215407
0.000215422
0.000215436
0.000215449
0.000215461
0.000215471
0.000215481
0.00021549
0.000215499
0.000215508
0.000215517
0.000215527
0.000215539
0.000215553
0.00021557
0.00021559
0.000215614
0.000215644
0.000215678
0.000215719
0.000215764
0.000215816
0.000215872
0.000215934
0.000216002
0.000216078
0.000216164
0.000216262
0.000216373
0.0002165
0.000216642
0.000216797
0.000216969
0.00021716
0.000217369
0.000217588
0.000217861
0.000218025
0.000218336
0.000218776
0.000223582
0.000224484
0.000224563
0.000225304
0.000223075
0.000221814
0.000221172
0.000220768
0.000220272
0.000219386
0.000218517
0.000141903
0.000198523
0.000209192
0.00021217
0.000213292
0.000213785
0.000214011
0.000214115
0.000214162
0.000214186
0.000214202
0.000214216
0.000214229
0.000214244
0.00021426
0.000214277
0.000214296
0.000214316
0.000214337
0.00021436
0.000214383
0.000214407
0.000214432
0.000214457
0.000214482
0.000214508
0.000214534
0.000214561
0.000214588
0.000214616
0.000214644
0.000214673
0.000214702
0.000214731
0.00021476
0.00021479
0.00021482
0.000214851
0.000214881
0.000214912
0.000214943
0.000214974
0.000215005
0.000215036
0.000215067
0.000215098
0.000215129
0.000215159
0.000215189
0.000215218
0.000215247
0.000215276
0.000215304
0.000215331
0.000215357
0.000215382
0.000215406
0.000215429
0.000215451
0.000215472
0.000215492
0.000215511
0.000215528
0.000215545
0.000215561
0.000215575
0.00021559
0.000215604
0.000215618
0.000215633
0.000215648
0.000215665
0.000215684
0.000215705
0.000215729
0.000215757
0.000215789
0.000215825
0.000215865
0.000215911
0.000215961
0.000216015
0.000216073
0.000216137
0.000216208
0.000216288
0.000216382
0.00021649
0.000216617
0.000216764
0.000216926
0.000217106
0.000217308
0.000217531
0.000217767
0.000218065
0.000218249
0.000218607
0.000219066
0.000223661
0.000224543
0.000224609
0.000225502
0.000223128
0.000221575
0.000220859
0.000220398
0.000219742
0.000218833
0.000217951
0.000141877
0.000198526
0.000209199
0.00021218
0.000213305
0.000213799
0.000214026
0.00021413
0.000214177
0.000214202
0.000214218
0.000214231
0.000214245
0.00021426
0.000214276
0.000214293
0.000214312
0.000214332
0.000214354
0.000214376
0.000214399
0.000214423
0.000214447
0.000214471
0.000214497
0.000214522
0.000214549
0.000214576
0.000214603
0.000214631
0.000214659
0.000214688
0.000214717
0.000214746
0.000214776
0.000214807
0.000214838
0.000214869
0.0002149
0.000214932
0.000214964
0.000214996
0.000215028
0.00021506
0.000215093
0.000215125
0.000215158
0.00021519
0.000215222
0.000215254
0.000215285
0.000215316
0.000215347
0.000215377
0.000215407
0.000215435
0.000215463
0.000215491
0.000215517
0.000215542
0.000215567
0.00021559
0.000215613
0.000215635
0.000215656
0.000215676
0.000215696
0.000215716
0.000215736
0.000215756
0.000215777
0.000215799
0.000215823
0.000215848
0.000215877
0.000215908
0.000215942
0.00021598
0.000216021
0.000216066
0.000216114
0.000216166
0.00021622
0.000216278
0.000216342
0.000216415
0.000216502
0.000216606
0.000216733
0.000216884
0.000217056
0.000217246
0.000217462
0.000217703
0.000217959
0.000218287
0.000218494
0.000218907
0.000219395
0.00022377
0.000224627
0.000224683
0.000225751
0.000223292
0.000221519
0.00022077
0.000220172
0.000219432
0.000218476
0.000217631
0.000141849
0.00019853
0.000209206
0.00021219
0.000213318
0.000213814
0.000214042
0.000214146
0.000214193
0.000214218
0.000214234
0.000214248
0.000214261
0.000214276
0.000214292
0.00021431
0.000214329
0.000214349
0.00021437
0.000214392
0.000214415
0.000214438
0.000214462
0.000214487
0.000214512
0.000214537
0.000214564
0.00021459
0.000214618
0.000214646
0.000214674
0.000214703
0.000214733
0.000214763
0.000214793
0.000214824
0.000214855
0.000214887
0.00021492
0.000214952
0.000214985
0.000215018
0.000215052
0.000215086
0.00021512
0.000215154
0.000215188
0.000215223
0.000215257
0.000215291
0.000215325
0.000215359
0.000215393
0.000215426
0.000215459
0.000215492
0.000215524
0.000215555
0.000215586
0.000215616
0.000215646
0.000215675
0.000215703
0.00021573
0.000215757
0.000215784
0.00021581
0.000215836
0.000215862
0.000215888
0.000215915
0.000215942
0.000215971
0.000216002
0.000216035
0.000216069
0.000216106
0.000216146
0.000216187
0.000216232
0.000216278
0.000216327
0.000216377
0.000216428
0.000216483
0.000216546
0.000216623
0.000216722
0.000216847
0.000217004
0.000217187
0.000217389
0.000217623
0.000217886
0.000218165
0.000218528
0.000218765
0.000219239
0.000219764
0.000223911
0.000224739
0.000224786
0.00022601
0.000223492
0.000221568
0.00022084
0.000220103
0.000219336
0.000218388
0.00021755
0.000141819
0.000198533
0.000209213
0.000212201
0.000213331
0.000213829
0.000214058
0.000214162
0.00021421
0.000214235
0.000214251
0.000214264
0.000214278
0.000214293
0.00021431
0.000214327
0.000214346
0.000214367
0.000214387
0.000214409
0.000214431
0.000214454
0.000214478
0.000214502
0.000214527
0.000214553
0.000214579
0.000214606
0.000214633
0.000214661
0.00021469
0.000214719
0.000214749
0.000214779
0.00021481
0.000214842
0.000214874
0.000214907
0.00021494
0.000214973
0.000215007
0.000215042
0.000215077
0.000215112
0.000215148
0.000215184
0.00021522
0.000215257
0.000215293
0.00021533
0.000215367
0.000215404
0.000215441
0.000215478
0.000215515
0.000215552
0.000215588
0.000215624
0.00021566
0.000215695
0.00021573
0.000215765
0.000215799
0.000215832
0.000215866
0.000215898
0.000215931
0.000215964
0.000215996
0.000216029
0.000216063
0.000216096
0.000216131
0.000216167
0.000216205
0.000216243
0.000216283
0.000216324
0.000216367
0.000216411
0.000216455
0.000216501
0.000216546
0.000216591
0.000216636
0.000216686
0.000216751
0.00021684
0.000216963
0.000217125
0.000217321
0.000217538
0.000217792
0.00021808
0.000218388
0.000218791
0.000219064
0.00021961
0.000220179
0.000224084
0.000224878
0.000224918
0.00022631
0.000223732
0.000221722
0.000221053
0.000220202
0.000219435
0.000218509
0.000217666
0.000141787
0.000198537
0.000209221
0.000212212
0.000213345
0.000213845
0.000214075
0.000214179
0.000214227
0.000214252
0.000214268
0.000214282
0.000214296
0.000214311
0.000214328
0.000214345
0.000214364
0.000214384
0.000214404
0.000214426
0.000214448
0.00021447
0.000214494
0.000214518
0.000214543
0.000214568
0.000214594
0.000214621
0.000214649
0.000214677
0.000214706
0.000214735
0.000214766
0.000214797
0.000214828
0.00021486
0.000214893
0.000214927
0.000214961
0.000214995
0.00021503
0.000215066
0.000215103
0.00021514
0.000215177
0.000215215
0.000215253
0.000215292
0.000215332
0.000215371
0.000215411
0.000215451
0.000215492
0.000215533
0.000215574
0.000215615
0.000215656
0.000215697
0.000215738
0.000215779
0.000215819
0.00021586
0.000215901
0.000215941
0.000215981
0.000216021
0.000216061
0.000216101
0.000216141
0.000216181
0.000216222
0.000216263
0.000216304
0.000216346
0.000216389
0.000216432
0.000216475
0.000216519
0.000216563
0.000216606
0.000216649
0.000216691
0.000216732
0.000216772
0.000216808
0.000216844
0.000216893
0.00021697
0.000217087
0.000217253
0.00021746
0.000217695
0.000217972
0.000218289
0.000218631
0.000219082
0.000219397
0.000220027
0.000220646
0.000224293
0.000225044
0.000225079
0.000226656
0.000224018
0.000221989
0.000221357
0.000220473
0.000219718
0.000218801
0.000217936
0.000141754
0.00019854
0.000209228
0.000212224
0.00021336
0.000213861
0.000214092
0.000214197
0.000214245
0.000214269
0.000214286
0.0002143
0.000214314
0.000214329
0.000214346
0.000214364
0.000214382
0.000214401
0.000214422
0.000214443
0.000214464
0.000214487
0.00021451
0.000214534
0.000214559
0.000214584
0.00021461
0.000214637
0.000214665
0.000214693
0.000214722
0.000214752
0.000214783
0.000214814
0.000214846
0.000214879
0.000214913
0.000214947
0.000214982
0.000215018
0.000215054
0.000215092
0.000215129
0.000215168
0.000215207
0.000215247
0.000215288
0.000215329
0.000215371
0.000215414
0.000215457
0.000215501
0.000215545
0.00021559
0.000215635
0.000215681
0.000215727
0.000215773
0.00021582
0.000215867
0.000215914
0.000215961
0.000216009
0.000216057
0.000216104
0.000216152
0.0002162
0.000216248
0.000216297
0.000216345
0.000216394
0.000216443
0.000216492
0.000216541
0.00021659
0.000216638
0.000216686
0.000216733
0.000216778
0.000216822
0.000216864
0.000216903
0.000216938
0.000216972
0.000217005
0.00021703
0.000217064
0.000217124
0.00021723
0.000217392
0.000217609
0.000217863
0.000218166
0.000218518
0.000218899
0.000219406
0.00021977
0.0002205
0.00022118
0.000224535
0.000225236
0.000225268
0.00022705
0.000224348
0.000222347
0.000221727
0.000220882
0.000220155
0.000219245
0.000218333
0.000141718
0.000198543
0.000209236
0.000212236
0.000213375
0.000213878
0.000214109
0.000214214
0.000214263
0.000214288
0.000214304
0.000214318
0.000214333
0.000214348
0.000214364
0.000214382
0.0002144
0.000214419
0.000214439
0.000214459
0.000214481
0.000214503
0.000214526
0.00021455
0.000214575
0.0002146
0.000214626
0.000214653