/*--------------------------------*- C++ -*----------------------------------*\
| =========                 |                                                 |
| \\      /  F ield         | OpenFOAM: The Open Source CFD Toolbox           |
|  \\    /   O peration     | Version:  v2106                                 |
|   \\  /    A nd           | Website:  www.openfoam.com                      |
|    \\/     M anipulation  |                                                 |
\*---------------------------------------------------------------------------*/
FoamFile
{
    version     2.0;
    format      ascii;
    arch        "LSB;label=32;scalar=64";
    class       volScalarField;
    location    "0.7";
    object      nut;
}
// * * * * * * * * * * * * * * * * * * * * * * * * * * * * * * * * * * * * * //

dimensions      [0 2 -1 0 0 0 0];

internalField   nonuniform List<scalar> 
29678
(
1.96805e-05
0.000157842
0.000479304
0.000869362
0.00117164
0.00134432
0.0014232
0.00145336
0.00146332
0.00146622
0.00146699
0.00146719
0.00146725
0.00146728
0.00146731
0.00146734
0.00146737
0.0014674
0.00146744
0.00146747
0.00146751
0.00146756
0.0014676
0.00146765
0.0014677
0.00146775
0.0014678
0.00146786
0.00146792
0.00146798
0.00146804
0.0014681
0.00146817
0.00146823
0.00146829
0.00146835
0.00146841
0.00146847
0.00146853
0.00146859
0.00145516
0.00142864
0.00140436
0.00138251
0.00136306
0.001346
0.00133134
0.0013191
0.00130931
0.00130203
0.00129733
0.00129528
0.00129598
0.00129957
0.00130618
0.00131599
0.0013292
0.00134604
0.0013668
0.0013919
0.00142183
0.0014564
0.00146885
0.00146878
0.0014687
0.00146861
0.0014685
0.00146838
0.00146826
0.00146812
0.00146799
0.00146786
0.00146774
0.00146764
0.00146755
0.00146748
0.00146744
0.00146742
0.00146744
0.0014675
0.00146759
0.00146773
0.00146792
0.00146816
0.00146843
0.00146872
0.00146901
0.00146927
0.00146948
0.00146961
0.00146964
0.00146956
0.00146936
0.00146897
0.00146778
0.00146021
0.00140782
0.00123586
0.000139908
2.73774e-05
1.94121e-05
1.75929e-05
2.56811e-05
3.47931e-05
3.5288e-05
8.91296e-05
7.68256e-05
4.3217e-05
3.83145e-05
1.07759e-05
1.96802e-05
0.000157854
0.000479342
0.000869418
0.00117169
0.00134436
0.00142322
0.00145338
0.00146334
0.00146624
0.00146702
0.00146722
0.00146728
0.00146732
0.00146736
0.00146739
0.00146743
0.00146747
0.00146752
0.00146757
0.00146761
0.00146767
0.00146772
0.00146778
0.00146784
0.00146791
0.00146797
0.00146804
0.00146811
0.00146243
0.00141606
0.00137193
0.00133043
0.00129152
0.00125507
0.00122095
0.0011891
0.00115944
0.00113192
0.00110651
0.00108315
0.00106182
0.00104245
0.00102503
0.00100954
0.000995956
0.000984271
0.000974481
0.000966599
0.000960653
0.000956682
0.000954744
0.000954911
0.000957275
0.000961949
0.000969069
0.000978798
0.000991333
0.00100691
0.00102582
0.00104833
0.00107471
0.00110531
0.00114055
0.00118079
0.00122631
0.00127751
0.00133504
0.00139937
0.00146837
0.00146823
0.00146808
0.00146794
0.00146781
0.0014677
0.00146761
0.00146756
0.00146753
0.00146755
0.0014676
0.0014677
0.00146785
0.00146805
0.0014683
0.00146858
0.00146887
0.00146912
0.00146929
0.00146937
0.00146932
0.00146914
0.00146879
0.00146827
0.00146753
0.00143656
0.00118713
0.00112786
0.00130359
0.000777303
1.97308e-05
1.21891e-05
1.83641e-05
1.96054e-05
2.50067e-05
2.94203e-05
4.04959e-05
4.80134e-05
3.81722e-05
3.90906e-05
4.21317e-05
1.96803e-05
0.000157877
0.000479409
0.00086951
0.00117177
0.00134441
0.00142326
0.00145341
0.00146336
0.00146627
0.00146705
0.00146725
0.00146732
0.00146737
0.00146741
0.00146745
0.0014675
0.00146755
0.0014676
0.00146765
0.00146771
0.00146778
0.00146784
0.00146791
0.00146798
0.00146806
0.00146233
0.00140857
0.00135754
0.00130977
0.00126522
0.00122362
0.00118474
0.00114842
0.00111453
0.00108295
0.0010536
0.00102638
0.00100122
0.000978072
0.000956859
0.000937542
0.000920043
0.000904335
0.000890383
0.000878151
0.000867614
0.000858758
0.000851582
0.0008461
0.00084234
0.000840344
0.000840173
0.000841904
0.000845635
0.000851489
0.000859615
0.000870198
0.000883465
0.000899685
0.000919133
0.000942054
0.000968904
0.00100003
0.00103594
0.00107708
0.00112393
0.00117701
0.00123678
0.00130422
0.0013806
0.0014645
0.00146814
0.001468
0.00146787
0.00146777
0.00146771
0.00146768
0.00146769
0.00146775
0.00146787
0.00146804
0.00146827
0.00146854
0.00146883
0.0014691
0.00146929
0.00146937
0.00146931
0.0014691
0.00146871
0.00146813
0.00146734
0.00141062
0.00118907
0.0010574
0.00112724
0.00136562
0.00104284
1.67959e-05
1.34744e-05
1.51086e-05
2.65924e-05
1.92968e-05
4.33347e-05
3.56806e-05
4.95308e-05
4.0394e-05
4.08298e-05
4.44771e-05
1.96804e-05
0.000157904
0.000479491
0.000869622
0.00117187
0.00134447
0.0014233
0.00145344
0.00146338
0.00146629
0.00146707
0.00146728
0.00146735
0.0014674
0.00146745
0.00146749
0.00146754
0.0014676
0.00146765
0.00146771
0.00146778
0.00146785
0.00146792
0.001468
0.00146808
0.00145286
0.00139662
0.00134364
0.00129449
0.00124885
0.0012065
0.00116719
0.00113071
0.00109689
0.00106555
0.00103653
0.00100967
0.00098486
0.00096199
0.00094097
0.000921707
0.000904107
0.00088811
0.000873687
0.00086082
0.000849491
0.000839693
0.000831422
0.000824687
0.000819505
0.000815908
0.000813938
0.000813649
0.000815113
0.000818417
0.000823668
0.000830992
0.000840542
0.000852494
0.000867048
0.000884407
0.000904789
0.000928512
0.000956027
0.000987828
0.00102447
0.0010666
0.00111494
0.00117005
0.00123261
0.0013042
0.00138591
0.00146834
0.00146819
0.00146805
0.00146795
0.00146789
0.00146786
0.00146789
0.00146796
0.0014681
0.00146829
0.00146854
0.00146882
0.00146911
0.00146934
0.00146946
0.00146946
0.00146931
0.001469
0.00146852
0.00146784
0.00146695
0.0012818
0.00110866
0.00097748
0.000974657
0.00141046
0.00117075
1.66422e-05
1.50605e-05
1.5193e-05
2.88827e-05
2.06379e-05
4.89623e-05
3.3265e-05
4.93507e-05
4.2235e-05
4.78484e-05
4.4453e-05
1.96803e-05
0.000157932
0.000479578
0.000869743
0.00117197
0.00134454
0.00142334
0.00145346
0.0014634
0.00146631
0.00146709
0.0014673
0.00146738
0.00146743
0.00146747
0.00146752
0.00146757
0.00146763
0.00146769
0.00146775
0.00146782
0.00146789
0.00146797
0.00146805
0.00146813
0.00142123
0.00136629
0.00131537
0.00126842
0.00122495
0.00118463
0.00114715
0.00111228
0.00107988
0.0010498
0.00102188
0.000996005
0.000972064
0.00094996
0.000929604
0.000910915
0.000893822
0.000878269
0.000864224
0.000851661
0.000840568
0.000830935
0.000822764
0.000816063
0.000810852
0.000807159
0.000805026
0.000804505
0.000805663
0.00080858
0.000813355
0.000820103
0.000828961
0.000840087
0.00085366
0.00086988
0.000888983
0.000911274
0.000937132
0.000967011
0.00100143
0.00104096
0.00108626
0.00113794
0.00119667
0.00126322
0.00133948
0.00142645
0.0014684
0.00146827
0.00146817
0.00146812
0.0014681
0.00146814
0.00146823
0.00146838
0.00146858
0.00146883
0.0014691
0.00146935
0.00146952
0.00146957
0.0014695
0.00146928
0.0014689
0.00146836
0.00146763
0.00141241
0.00122157
0.00106122
0.000920612
0.000873392
0.00113333
0.00112377
1.89854e-05
1.99602e-05
2.14257e-05
2.70042e-05
2.37273e-05
5.42317e-05
3.54474e-05
5.39585e-05
4.55025e-05
5.32911e-05
4.79358e-05
1.96801e-05
0.000157961
0.000479666
0.000869867
0.00117208
0.00134461
0.00142338
0.00145349
0.00146342
0.00146633
0.00146711
0.00146732
0.0014674
0.00146745
0.00146749
0.00146754
0.0014676
0.00146765
0.00146771
0.00146778
0.00146785
0.00146792
0.001468
0.00146808
0.00145911
0.00140224
0.00134908
0.00129992
0.00125438
0.00121211
0.00117283
0.00113627
0.00110223
0.00107054
0.00104104
0.00101362
0.000988144
0.000964524
0.000942665
0.000922488
0.000903922
0.000886905
0.000871391
0.000857344
0.000844742
0.000833569
0.000823818
0.000815489
0.000808591
0.000803143
0.000799172
0.000796717
0.000795828
0.000796567
0.000799012
0.000803254
0.000809403
0.000817586
0.000827953
0.000840673
0.000855947
0.000874007
0.000895144
0.000919688
0.000948066
0.000980751
0.00101828
0.00106127
0.00111038
0.00116638
0.00122995
0.00130159
0.00138326
0.00146863
0.00146852
0.00146844
0.0014684
0.00146839
0.00146844
0.00146854
0.0014687
0.0014689
0.00146913
0.00146936
0.00146954
0.00146963
0.0014696
0.00146946
0.00146917
0.00146873
0.00146812
0.00146732
0.00133048
0.00115564
0.00100655
0.00086537
0.00079992
0.000934461
0.000861743
2.25239e-05
2.5936e-05
2.81307e-05
2.78818e-05
2.92111e-05
5.96873e-05
3.93075e-05
5.96952e-05
4.96633e-05
5.97586e-05
5.18062e-05
1.96797e-05
0.00015799
0.000479756
0.000869992
0.00117219
0.00134469
0.00142342
0.00145352
0.00146345
0.00146635
0.00146713
0.00146734
0.00146742
0.00146747
0.00146751
0.00146756
0.00146762
0.00146767
0.00146774
0.0014678
0.00146787
0.00146794
0.00146802
0.0014681
0.00144206
0.00138664
0.00133499
0.00128709
0.00124258
0.00120116
0.00116259
0.00112663
0.0010931
0.00106183
0.00103268
0.00100552
0.000980261
0.000956792
0.00093503
0.000914902
0.00089634
0.000879291
0.00086371
0.000849563
0.000836826
0.000825483
0.000815526
0.000806955
0.000799778
0.000794011
0.000789682
0.000786825
0.000785487
0.000785729
0.00078762
0.000791248
0.000796714
0.000804139
0.000813663
0.000825449
0.000839686
0.0008566
0.000876454
0.000899568
0.000926322
0.000957152
0.000992561
0.00103312
0.0010795
0.00113245
0.00119278
0.00126089
0.00133776
0.00142536
0.00146881
0.00146875
0.00146872
0.00146873
0.00146879
0.00146889
0.00146904
0.00146922
0.0014694
0.00146956
0.00146965
0.00146966
0.00146956
0.00146934
0.00146898
0.00146847
0.00146779
0.0014281
0.00124961
0.0010895
0.000952805
0.000816278
0.000744119
0.000804035
0.000702236
2.65079e-05
3.20674e-05
3.23998e-05
2.91829e-05
3.58691e-05
6.55691e-05
4.46431e-05
6.74533e-05
5.53667e-05
6.81716e-05
5.79517e-05
1.96792e-05
0.000158019
0.000479845
0.000870118
0.0011723
0.00134476
0.00142347
0.00145355
0.00146347
0.00146637
0.00146715
0.00146736
0.00146744
0.00146749
0.00146754
0.00146759
0.00146764
0.0014677
0.00146776
0.00146783
0.0014679
0.00146797
0.00146805
0.00146813
0.00142478
0.00137089
0.00132064
0.00127389
0.00123032
0.00118968
0.00115176
0.00111634
0.00108325
0.00105235
0.00102349
0.000996565
0.00097147
0.000948114
0.000926417
0.000906307
0.000887722
0.00087061
0.000854931
0.00084065
0.000827744
0.000816196
0.000805996
0.000797145
0.000789647
0.000783519
0.000778783
0.000775474
0.000773634
0.000773319
0.000774593
0.000777538
0.000782249
0.000788836
0.000797432
0.000808189
0.000821285
0.00083693
0.000855361
0.000876876
0.000901815
0.000930565
0.000963573
0.00100135
0.00104447
0.00109361
0.00114955
0.00121305
0.0012843
0.00136604
0.00145933
0.00146906
0.00146906
0.00146908
0.00146914
0.00146924
0.00146936
0.00146949
0.00146961
0.00146968
0.00146969
0.00146961
0.00146943
0.00146914
0.00146871
0.00146812
0.00146736
0.00134053
0.00117848
0.00103013
0.000904058
0.000772772
0.00069904
0.000712532
0.000592449
3.06962e-05
3.79703e-05
3.43575e-05
3.03742e-05
4.3628e-05
7.32967e-05
5.15884e-05
7.72044e-05
6.26928e-05
7.83411e-05
6.56175e-05
1.96786e-05
0.000158048
0.000479935
0.000870245
0.00117241
0.00134484
0.00142352
0.00145358
0.0014635
0.0014664
0.00146718
0.00146739
0.00146746
0.00146751
0.00146756
0.00146761
0.00146767
0.00146772
0.00146779
0.00146785
0.00146792
0.001468
0.00146808
0.00146196
0.00140628
0.00135399
0.00130518
0.0012596
0.00121699
0.00117715
0.00113989
0.00110503
0.0010724
0.00104187
0.00101331
0.000986616
0.000961692
0.00093845
0.000916815
0.000896718
0.000878103
0.000860919
0.000845128
0.000830697
0.000817602
0.000805826
0.000795358
0.000786198
0.000778349
0.000771825
0.000766647
0.000762845
0.000760458
0.000759537
0.000760143
0.000762349
0.000766244
0.00077193
0.000779527
0.000789179
0.000801049
0.000815328
0.000832234
0.000852035
0.000875032
0.000901565
0.00093202
0.00096683
0.00100648
0.00105149
0.00110247
0.00116011
0.00122513
0.00129796
0.00138301
0.00146932
0.00146936
0.0014694
0.00146945
0.00146952
0.0014696
0.00146967
0.00146971
0.0014697
0.00146963
0.00146948
0.00146923
0.00146886
0.00146835
0.00146769
0.00143112
0.00126939
0.00111809
0.000977967
0.000860117
0.00073342
0.000660141
0.0006437
0.000511377
3.49816e-05
4.39939e-05
3.44582e-05
3.10859e-05
5.19864e-05
8.16507e-05
5.99993e-05
8.88395e-05
7.19878e-05
9.14093e-05
7.57774e-05
1.96778e-05
0.000158077
0.000480025
0.000870373
0.00117253
0.00134492
0.00142357
0.00145362
0.00146353
0.00146643
0.0014672
0.00146741
0.00146749
0.00146754
0.00146759
0.00146764
0.00146769
0.00146775
0.00146781
0.00146788
0.00146795
0.00146803
0.00146811
0.00144041
0.00138642
0.00133583
0.00128849
0.00124411
0.00120251
0.00116352
0.00112696
0.00109268
0.00106053
0.0010304
0.00100216
0.000975708
0.000950963
0.000927842
0.000906271
0.000886189
0.00086754
0.000850279
0.000834367
0.000819773
0.000806473
0.000794451
0.000783694
0.000774201
0.000765975
0.000759026
0.000753374
0.000749045
0.000746075
0.000744509
0.000744404
0.000745826
0.000748856
0.000753589
0.000760135
0.000768626
0.000779211
0.000792062
0.000807384
0.000825414
0.000846423
0.000870714
0.00089863
0.000930547
0.000966881
0.00100808
0.00105461
0.001107
0.00116586
0.00123194
0.00130666
0.00139546
0.00146954
0.0014696
0.00146965
0.00146969
0.00146972
0.00146973
0.0014697
0.00146962
0.00146948
0.00146925
0.00146893
0.00146849
0.00146791
0.00146717
0.001366
0.00121247
0.00106713
0.00093219
0.000820194
0.000697134
0.00062486
0.000588961
0.000449152
3.93008e-05
5.08264e-05
3.41914e-05
3.1238e-05
6.09645e-05
8.99714e-05
7.02712e-05
0.0001029
8.38075e-05
0.000108257
8.88652e-05
1.96769e-05
0.000158106
0.000480114
0.000870501
0.00117265
0.001345
0.00142363
0.00145366
0.00146356
0.00146646
0.00146723
0.00146744
0.00146752
0.00146757
0.00146762
0.00146767
0.00146773
0.00146778
0.00146785
0.00146791
0.00146798
0.00146806
0.00146814
0.00141743
0.00136536
0.00131653
0.00127066
0.00122752
0.00118696
0.00114885
0.00111303
0.00107936
0.00104773
0.00101801
0.000990097
0.000963906
0.00093935
0.000916355
0.000894853
0.000874786
0.000856102
0.000838758
0.000822717
0.00080795
0.000794433
0.000782148
0.000771086
0.00076124
0.000752615
0.000745217
0.000739065
0.00073418
0.000730597
0.000728354
0.000727504
0.000728107
0.000730236
0.000733978
0.000739435
0.000746726
0.00075599
0.00076738
0.00078109
0.000797335
0.000816361
0.000838446
0.000863906
0.000893091
0.000926388
0.00096422
0.00100705
0.00105538
0.00110981
0.00117106
0.00124004
0.00131832
0.00140982
0.00146966
0.0014697
0.00146972
0.0014697
0.00146966
0.00146957
0.00146943
0.00146923
0.00146894
0.00146854
0.00146803
0.00146738
0.00146656
0.0013193
0.00116789
0.00102432
0.000891749
0.000783412
0.000663047
0.000591565
0.000543181
0.000399422
4.3599e-05
5.76985e-05
3.39961e-05
3.10228e-05
7.05211e-05
9.79805e-05
8.29036e-05
0.000119445
9.89531e-05
0.000130746
0.000106134
1.96759e-05
0.000158136
0.000480204
0.00087063
0.00117276
0.00134509
0.00142368
0.0014537
0.0014636
0.00146649
0.00146727
0.00146748
0.00146755
0.00146761
0.00146765
0.0014677
0.00146776
0.00146782
0.00146788
0.00146795
0.00146802
0.0014681
0.00144651
0.00139337
0.00134331
0.00129624
0.00125184
0.00120995
0.00117047
0.00113326
0.0010982
0.00106517
0.00103407
0.00100478
0.000977215
0.000951292
0.000926933
0.00090407
0.000882639
0.000862587
0.000843865
0.000826434
0.000810258
0.000795308
0.000781563
0.000769004
0.00075762
0.000747406
0.000738363
0.000730498
0.000723824
0.000718363
0.000714142
0.000711199
0.000709578
0.000709336
0.000710538
0.000713264
0.000717607
0.000723676
0.000731596
0.000741514
0.000753605
0.000768069
0.000785133
0.000805057
0.000828139
0.000854713
0.000885155
0.00091989
0.000959396
0.00100422
0.00105502
0.00111255
0.00117761
0.0012507
0.00133193
0.00142251
0.00146963
0.00146962
0.00146957
0.00146948
0.00146935
0.00146915
0.00146888
0.00146852
0.00146806
0.00146748
0.00146675
0.00144717
0.00128893
0.00113402
0.000988279
0.000855404
0.000748781
0.000630415
0.000559243
0.000503188
0.000358654
4.77934e-05
6.45433e-05
3.33838e-05
3.04978e-05
8.00248e-05
0.000106832
9.83773e-05
0.000138384
0.000118983
0.000161699
0.000129838
1.96747e-05
0.000158165
0.000480294
0.000870758
0.00117288
0.00134517
0.00142374
0.00145375
0.00146364
0.00146653
0.0014673
0.00146751
0.00146759
0.00146764
0.00146769
0.00146774
0.0014678
0.00146786
0.00146792
0.00146799
0.00146806
0.00146814
0.00141947
0.00136851
0.0013205
0.00127513
0.00123218
0.00119156
0.00115316
0.00111687
0.00108259
0.00105022
0.00101965
0.000990811
0.000963603
0.000937955
0.000913798
0.000891069
0.000869711
0.000849673
0.000830912
0.000813389
0.000797072
0.000781933
0.00076795
0.000755106
0.00074339
0.000732795
0.000723321
0.000714973
0.000707763
0.000701708
0.000696834
0.000693172
0.000690765
0.00068966
0.000689919
0.000691614
0.00069483
0.000699666
0.000706237
0.00071468
0.000725157
0.000737851
0.000752976
0.000770775
0.00079153
0.000815562
0.000843238
0.00087498
0.000911278
0.000952702
0.000999918
0.00105367
0.00111466
0.00118322
0.00125889
0.00134111
0.00143046
0.00146941
0.00146933
0.0014692
0.00146901
0.00146876
0.00146843
0.00146801
0.00146748
0.00146683
0.00146602
0.0014443
0.00127381
0.00110924
0.000957322
0.000821708
0.000715198
0.000598543
0.000527248
0.000466889
0.000324604
5.17985e-05
7.14084e-05
3.26164e-05
2.97945e-05
8.89258e-05
0.000116216
0.000116858
0.000159608
0.000146195
0.000205993
0.00016441
1.96733e-05
0.000158194
0.000480383
0.000870887
0.001173
0.00134526
0.0014238
0.00145379
0.00146368
0.00146657
0.00146734
0.00146755
0.00146763
0.00146768
0.00146773
0.00146778
0.00146784
0.0014679
0.00146796
0.00146803
0.0014681
0.00144311
0.00139178
0.0013431
0.00129707
0.00125336
0.00121186
0.00117249
0.00113517
0.00109981
0.00106632
0.00103461
0.00100459
0.0009762
0.000949352
0.000923983
0.000900031
0.000877438
0.000856153
0.00083613
0.000817327
0.000799709
0.000783246
0.000767912
0.000753685
0.000740548
0.00072849
0.000717505
0.00070759
0.000698749
0.000690992
0.000684333
0.000678795
0.000674405
0.000671201
0.000669226
0.000668535
0.000669194
0.000671279
0.000674883
0.000680107
0.000687083
0.000695956
0.000706897
0.000720103
0.000735805
0.000754266
0.000775793
0.000800741
0.000829522
0.000862622
0.000900605
0.00094412
0.000993864
0.00105047
0.00111436
0.00118563
0.00126434
0.00135145
0.00144899
0.00146898
0.00146881
0.00146857
0.00146826
0.00146787
0.00146739
0.00146679
0.00146607
0.00146519
0.00146411
0.00127305
0.00109147
0.000929299
0.000788962
0.000681456
0.000566755
0.000495168
0.000432822
0.000295708
5.55213e-05
7.81202e-05
3.17314e-05
2.89939e-05
9.73525e-05
0.000125101
0.000137579
0.00018323
0.000183285
0.00027295
0.000219028
1.96719e-05
0.000158223
0.000480472
0.000871015
0.00117312
0.00134535
0.00142387
0.00145384
0.00146372
0.00146661
0.00146738
0.00146759
0.00146767
0.00146772
0.00146777
0.00146782
0.00146788
0.00146794
0.001468
0.00146807
0.00146372
0.00141274
0.00136378
0.00131736
0.00127319
0.00123109
0.00119101
0.00115289
0.00111664
0.0010822
0.0010495
0.00101845
0.000988985
0.000961044
0.000934559
0.00090947
0.000885723
0.000863267
0.000842054
0.000822043
0.000803196
0.00078548
0.000768867
0.000753333
0.000738856
0.000725421
0.000713017
0.000701635
0.000691273
0.000681933
0.000673623
0.000666355
0.000660148
0.000655027
0.000651024
0.000648177
0.000646538
0.000646163
0.000647123
0.0006495
0.000653391
0.000658912
0.000666197
0.000675405
0.000686716
0.000700344
0.000716535
0.000735579
0.000757812
0.00078363
0.000813499
0.000847962
0.000887637
0.000933194
0.000985305
0.00104463
0.00111195
0.00118851
0.00127628
0.00137841
0.00146851
0.0014683
0.00146802
0.00146765
0.0014672
0.00146666
0.00146599
0.00146519
0.00146423
0.00146307
0.00128478
0.00107742
0.000901325
0.000755185
0.000646309
0.000534429
0.000462761
0.000399987
0.000270824
5.88639e-05
8.43911e-05
3.0757e-05
2.81431e-05
0.000104346
0.000133044
0.00015719
0.000207169
0.000232942
0.000377518
0.000318108
1.96703e-05
0.000158252
0.000480561
0.000871144
0.00117324
0.00134544
0.00142393
0.00145389
0.00146377
0.00146665
0.00146742
0.00146764
0.00146771
0.00146776
0.00146781
0.00146787
0.00146792
0.00146798
0.00146805
0.00146812
0.00143093
0.00138223
0.00133572
0.0012914
0.001249
0.00120849
0.0011698
0.00113289
0.0010977
0.00106417
0.00103224
0.00100185
0.000972933
0.000945441
0.000919316
0.000894507
0.000870964
0.000848641
0.000827499
0.000807498
0.000788604
0.000770788
0.000754023
0.000738285
0.000723556
0.00070982
0.000697065
0.000685283
0.000674472
0.000664632
0.000655768
0.000647891
0.000641016
0.000635165
0.000630366
0.000626654
0.000624073
0.000622675
0.000622523
0.000623689
0.000626262
0.000630349
0.00063607
0.000643568
0.000653009
0.000664589
0.000678536
0.000695115
0.000714641
0.000737485
0.000764083
0.000794948
0.00083067
0.00087192
0.000919469
0.000974278
0.00103773
0.00111195
0.00120011
0.00130663
0.00143737
0.00146766
0.00146733
0.00146692
0.00146641
0.0014658
0.00146506
0.00146419
0.00146315
0.00146191
0.0013037
0.00106164
0.000869625
0.000718204
0.000608622
0.00050107
0.000429911
0.000367771
0.000249095
6.17328e-05
8.98635e-05
2.97693e-05
2.75796e-05
0.000110726
0.000140477
0.000171828
0.000225705
0.000288809
0.000512271
0.000553568
1.96685e-05
0.00015828
0.000480649
0.000871272
0.00117336
0.00134553
0.001424
0.00145395
0.00146382
0.0014667
0.00146747
0.00146768
0.00146776
0.00146781
0.00146786
0.00146791
0.00146797
0.00146803
0.0014681
0.00144593
0.00139811
0.00135191
0.00130774
0.00126535
0.00122468
0.0011857
0.00114836
0.00111263
0.00107847
0.00104583
0.00101466
0.000984913
0.000956538
0.000929488
0.000903718
0.000879183
0.00085584
0.000833649
0.000812574
0.00079258
0.000773638
0.000755719
0.000738799
0.000722856
0.000707873
0.000693835
0.000680729
0.000668549
0.000657289
0.00064695
0.000637535
0.000629052
0.000621515
0.000614942
0.000609357
0.000604792
0.000601283
0.000598878
0.000597632
0.000597609
0.00059889
0.000601569
0.000605755
0.000611576
0.000619182
0.000628747
0.00064048
0.000654621
0.000671461
0.000691333
0.000714644
0.000741868
0.000773574
0.000810445
0.000853351
0.000903489
0.000962631
0.00103346
0.00111999
0.00122802
0.00136686
0.00146688
0.00146651
0.00146605
0.00146548
0.0014648
0.001464
0.00146305
0.00146194
0.00146061
0.0013175
0.00103569
0.000829958
0.000675896
0.00056767
0.000466439
0.000396561
0.000335911
0.000229842
6.40602e-05
9.53651e-05
2.86646e-05
2.6765e-05
0.00012253
0.000146754
0.000178841
0.00023056
0.000314804
0.000521014
0.00121362
1.96666e-05
0.000158309
0.000480737
0.000871399
0.00117348
0.00134562
0.00142407
0.001454
0.00146387
0.00146675
0.00146752
0.00146773
0.00146781
0.00146786
0.00146791
0.00146796
0.00146802
0.00146808
0.00145748
0.00141111
0.00136567
0.00132199
0.00127992
0.00123939
0.00120037
0.00116286
0.00112682
0.00109224
0.00105908
0.0010273
0.000996866
0.000967745
0.000939896
0.000913279
0.000887855
0.000863587
0.000840439
0.000818375
0.000797364
0.000777375
0.000758381
0.000740358
0.000723282
0.000707134
0.000691897
0.000677557
0.000664103
0.000651526
0.000639822
0.000628989
0.00061903
0.000609951
0.000601762
0.000594479
0.000588123
0.00058272
0.000578303
0.000574913
0.000572598
0.000571416
0.000571438
0.000572745
0.000575433
0.000579618
0.000585433
0.00059303
0.000602595
0.000614344
0.000628534
0.000645467
0.00066551
0.000689101
0.00071678
0.000749232
0.000787378
0.000832528
0.000886619
0.000952528
0.00103462
0.00113953
0.00127883
0.00146594
0.00146554
0.00146503
0.0014644
0.00146366
0.00146278
0.00146176
0.00146057
0.00145917
0.00130096
0.000989552
0.000779092
0.000626289
0.00052419
0.000430073
0.000362674
0.000304476
0.000212489
6.57808e-05
0.000100704
2.76734e-05
2.57775e-05
0.000124194
0.000148658
0.000171285
0.000220072
0.000285346
0.000396126
0.000798145
1.96646e-05
0.000158337
0.000480823
0.000871526
0.0011736
0.00134572
0.00142414
0.00145406
0.00146392
0.0014668
0.00146757
0.00146778
0.00146786
0.00146791
0.00146796
0.00146801
0.00146807
0.00146544
0.00142095
0.00137679
0.00133394
0.00129251
0.00125241
0.00121365
0.00117621
0.00114011
0.00110531
0.00107183
0.00103962
0.00100867
0.000978955
0.000950441
0.000923101
0.000896902
0.000871814
0.000847805
0.000824844
0.000802902
0.00078195
0.000761963
0.000742916
0.000724787
0.000707555
0.000691203
0.000675715
0.000661076
0.000647277
0.000634309
0.000622168
0.000610849
0.000600356
0.000590692
0.000581865
0.000573889
0.000566781
0.000560563
0.000555263
0.000550918
0.000547566
0.00054526
0.000544061
0.00054404
0.000545279
0.00054788
0.00055196
0.000557651
0.000565114
0.000574539
0.000586149
0.000600212
0.000617052
0.000637068
0.000660762
0.000688792
0.000722065
0.000761876
0.000810107
0.00086953
0.000944322
0.00104105
0.00117084
0.00135613
0.00146438
0.00146383
0.00146315
0.00146235
0.0014614
0.00146031
0.00145905
0.00145757
0.001226
0.000915673
0.000714816
0.000571895
0.000476828
0.000391026
0.000329358
0.000273804
0.00019642
6.68402e-05
0.000104628
2.66971e-05
2.5085e-05
0.000124051
0.000147382
0.00015733
0.000200436
0.000238644
0.000293936
0.000425536
1.96625e-05
0.000158365
0.00048091
0.000871652
0.00117372
0.00134581
0.00142421
0.00145412
0.00146397
0.00146685
0.00146762
0.00146783
0.00146791
0.00146796
0.00146801
0.00146807
0.00146813
0.00142751
0.00138507
0.00134344
0.00130296
0.0012636
0.00122536
0.00118826
0.00115232
0.00111755
0.00108394
0.0010515
0.00102021
0.000990053
0.000961022
0.000933092
0.000906241
0.000880445
0.000855679
0.000831919
0.000809137
0.00078731
0.000766413
0.000746424
0.000727322
0.000709087
0.0006917
0.000675145
0.000659408
0.000644476
0.000630339
0.000616987
0.000604417
0.000592625
0.000581611
0.000571377
0.000561931
0.000553283
0.000545446
0.00053844
0.000532288
0.00052702
0.00052267
0.000519282
0.000516909
0.000515614
0.000515463
0.000516547
0.00051896
0.000522821
0.000528266
0.000535458
0.000544587
0.000555885
0.000569634
0.000586186
0.000605992
0.000629656
0.000658005
0.000692211
0.00073395
0.000785646
0.000850871
0.000935234
0.00104751
0.0012059
0.00144888
0.00146243
0.00146172
0.00146086
0.00145985
0.00145869
0.00145735
0.00145582
0.00108623
0.000815243
0.000638508
0.000513452
0.000425994
0.000350932
0.000297464
0.000243746
0.000180745
6.72146e-05
0.000107449
2.57882e-05
2.43446e-05
0.000123966
0.000142903
0.00014161
0.000177109
0.000196455
0.000227837
0.000280077
1.96602e-05
0.000158393
0.000480995
0.000871778
0.00117384
0.0013459
0.00142428
0.00145418
0.00146403
0.0014669
0.00146767
0.00146788
0.00146796
0.00146802
0.00146807
0.00146812
0.00143075
0.00139039
0.00135035
0.00131115
0.00127281
0.00123537
0.00119887
0.00116334
0.00112881
0.0010953
0.00106281
0.00103135
0.00100093
0.000971533
0.000943155
0.000915782
0.000889399
0.000863988
0.00083953
0.000816006
0.000793394
0.000771675
0.000750828
0.000730835
0.000711676
0.000693334
0.000675794
0.00065904
0.000643059
0.000627839
0.000613371
0.000599646
0.000586659
0.000574407
0.000562888
0.000552104
0.00054206
0.000532763
0.000524226
0.000516462
0.000509492
0.000503341
0.000498036
0.000493618
0.000490127
0.000487616
0.000486144
0.000485783
0.000486615
0.000488741
0.000492271
0.000497342
0.000504117
0.00051279
0.000523602
0.000536851
0.000552929
0.000572354
0.000595838
0.000624359
0.000659289
0.000702558
0.000756907
0.000826527
0.000917472
0.00103988
0.00121804
0.00146079
0.00146008
0.00145918
0.00145811
0.00145688
0.00145549
0.00120843
0.000908241
0.00069955
0.000555643
0.000451515
0.000375193
0.000311671
0.000265957
0.000215058
0.0001641
6.68902e-05
0.00011069
2.5005e-05
2.37008e-05
0.000122789
0.000134148
0.000127173
0.00015471
0.000164023
0.000184805
0.000209338
1.96578e-05
0.000158421
0.000481079
0.000871901
0.00117396
0.001346
0.00142435
0.00145424
0.00146408
0.00146696
0.00146773
0.00146794
0.00146802
0.00146807
0.00146787
0.00143074
0.00139272
0.00135461
0.00131699
0.00127996
0.00124358
0.00120793
0.00117305
0.00113898
0.00110577
0.00107343
0.001042
0.00101148
0.000981874
0.000953194
0.000925435
0.00089859
0.000872651
0.000847606
0.00082344
0.00080014
0.000777688
0.00075607
0.000735268
0.000715267
0.00069605
0.000677603
0.000659911
0.000642962
0.000626743
0.000611243
0.000596454
0.000582367
0.000568977
0.000556281
0.000544276
0.000532963
0.000522344
0.000512427
0.00050322
0.000494733
0.000486984
0.000479994
0.000473786
0.000468391
0.000463842
0.000460183
0.000457468
0.000455747
0.000455095
0.000455591
0.00045733
0.00046042
0.000464996
0.000471215
0.000479278
0.000489433
0.000502
0.000517404
0.000536209
0.000559179
0.00058734
0.000622085
0.000665288
0.000719704
0.000788659
0.000877272
0.00099391
0.00115089
0.00134189
0.00145729
0.00145619
0.00139962
0.00115472
0.000920319
0.000731289
0.00058424
0.000473283
0.000390533
0.000326793
0.000273776
0.000235028
0.000189567
0.000147207
6.58174e-05
0.000113387
2.44033e-05
2.32295e-05
0.000123572
0.000123419
0.000114634
0.000135694
0.000140675
0.000156034
0.000168463
1.96552e-05
0.000158448
0.000481162
0.000872024
0.00117408
0.00134609
0.00142443
0.0014543
0.00146414
0.00146701
0.00146778
0.00146799
0.00146807
0.00146194
0.00142758
0.0013921
0.00135621
0.00132045
0.00128499
0.00124993
0.00121536
0.00118135
0.00114797
0.00111526
0.00108328
0.00105204
0.00102159
0.000991947
0.000963117
0.000935111
0.000907936
0.00088159
0.00085607
0.00083137
0.00080748
0.00078439
0.000762089
0.000740563
0.000719801
0.000699789
0.000680513
0.000661961
0.000644121
0.000626982
0.000610531
0.000594761
0.000579662
0.000565226
0.00055145
0.000538327
0.000525857
0.000514038
0.000502872
0.000492363
0.00048252
0.00047335
0.000464866
0.000457085
0.000450024
0.000443711
0.000438174
0.000433444
0.000429567
0.000426585
0.000424554
0.000423541
0.000423622
0.000424886
0.000427436
0.000431404
0.000436943
0.000444254
0.000453587
0.000465266
0.000479712
0.000497473
0.000519249
0.00054594
0.000578673
0.000618884
0.000667841
0.000728249
0.000801557
0.000883492
0.000966633
0.00102635
0.0010236
0.00094994
0.000828579
0.000698467
0.000581184
0.000480971
0.000398004
0.000334007
0.000282013
0.00023861
0.000205954
0.000167341
0.000131692
6.40643e-05
0.000113221
2.38109e-05
2.28864e-05
0.00012646
0.000112269
0.000104053
0.000120304
0.000123746
0.000136093
0.000142151
1.96525e-05
0.000158475
0.000481244
0.000872145
0.0011742
0.00134619
0.0014245
0.00145436
0.0014642
0.00146707
0.00146784
0.00146805
0.001453
0.00142148
0.00138867
0.00135521
0.00132156
0.00128791
0.00125439
0.00122112
0.0011882
0.0011557
0.0011237