/*--------------------------------*- C++ -*----------------------------------*\
| =========                 |                                                 |
| \\      /  F ield         | OpenFOAM: The Open Source CFD Toolbox           |
|  \\    /   O peration     | Version:  v2106                                 |
|   \\  /    A nd           | Website:  www.openfoam.com                      |
|    \\/     M anipulation  |                                                 |
\*---------------------------------------------------------------------------*/
FoamFile
{
    version     2.0;
    format      ascii;
    arch        "LSB;label=32;scalar=64";
    class       volScalarField;
    location    "0.7";
    object      omega;
}
// * * * * * * * * * * * * * * * * * * * * * * * * * * * * * * * * * * * * * //

dimensions      [0 0 -1 0 0 0 0];

internalField   nonuniform List<scalar> 
29678
(
7.21879
1.25742
0.436311
0.243946
0.181948
0.158932
0.150277
0.147225
0.146252
0.145976
0.145907
0.145893
0.145892
0.145894
0.145896
0.145899
0.145903
0.145906
0.14591
0.145915
0.145919
0.145924
0.145928
0.145934
0.145939
0.145945
0.145951
0.145957
0.145963
0.14597
0.145977
0.145984
0.145991
0.145998
0.146006
0.146014
0.146021
0.146029
0.146037
0.146045
0.146053
0.146061
0.146068
0.146076
0.146083
0.14609
0.146096
0.146102
0.146107
0.146112
0.146116
0.146119
0.146121
0.146122
0.146122
0.14612
0.146117
0.146113
0.146108
0.146101
0.146093
0.146083
0.146072
0.146059
0.146047
0.146034
0.146021
0.146007
0.145993
0.145979
0.145965
0.145951
0.145938
0.145927
0.145917
0.145909
0.145904
0.145902
0.145904
0.145909
0.145919
0.145934
0.145954
0.14598
0.146012
0.14605
0.146097
0.146153
0.146218
0.146294
0.14638
0.146477
0.146587
0.146716
0.146928
0.147782
0.153391
0.175079
0.264826
1.13045
0.878474
0.839981
0.515988
0.364019
0.304578
0.20989
0.215823
0.230951
0.22704
0.218553
7.21868
1.25732
0.436278
0.243932
0.181942
0.158931
0.150278
0.147227
0.146256
0.14598
0.145912
0.145899
0.145899
0.145902
0.145906
0.14591
0.145915
0.14592
0.145926
0.145932
0.145938
0.145945
0.145951
0.145959
0.145966
0.145975
0.145983
0.145992
0.146001
0.14601
0.14602
0.14603
0.14604
0.14605
0.146061
0.146072
0.146083
0.146095
0.146106
0.146118
0.146129
0.146141
0.146152
0.146163
0.146173
0.146183
0.146193
0.146201
0.146209
0.146216
0.146221
0.146226
0.146229
0.14623
0.146229
0.146227
0.146223
0.146217
0.146208
0.146198
0.146186
0.146171
0.146155
0.146138
0.14612
0.146103
0.146084
0.146065
0.146045
0.146026
0.146007
0.145988
0.14597
0.145954
0.145941
0.14593
0.145922
0.145918
0.145919
0.145925
0.145937
0.145955
0.145979
0.146011
0.146051
0.1461
0.14616
0.146233
0.14632
0.146421
0.14654
0.146676
0.146832
0.147011
0.147236
0.147664
0.150139
0.166133
0.23598
0.737932
0.787701
0.722599
0.494853
0.427399
0.301425
0.242789
0.227159
0.231939
0.217543
0.18632
7.21872
1.25716
0.436221
0.243909
0.181933
0.158927
0.150277
0.147228
0.146258
0.145984
0.145916
0.145903
0.145904
0.145908
0.145913
0.145918
0.145924
0.14593
0.145937
0.145944
0.145952
0.145959
0.145968
0.145977
0.145986
0.145996
0.146006
0.146016
0.146027
0.146039
0.146051
0.146063
0.146076
0.146089
0.146102
0.146116
0.14613
0.146144
0.146159
0.146173
0.146188
0.146202
0.146216
0.14623
0.146243
0.146255
0.146267
0.146278
0.146288
0.146296
0.146303
0.146308
0.146312
0.146314
0.146313
0.14631
0.146305
0.146298
0.146288
0.146275
0.14626
0.146243
0.146223
0.146202
0.146181
0.146159
0.146135
0.146111
0.146087
0.146063
0.14604
0.146018
0.145997
0.145978
0.145961
0.145948
0.145939
0.145935
0.145936
0.145944
0.145958
0.14598
0.14601
0.146049
0.146098
0.146158
0.146233
0.146324
0.146432
0.146558
0.146705
0.146874
0.147065
0.147281
0.147526
0.147831
0.148933
0.158619
0.209272
0.550644
0.594091
0.621445
0.362411
0.423479
0.246978
0.253791
0.222016
0.226465
0.21399
0.186453
7.21873
1.25696
0.436151
0.24388
0.18192
0.158923
0.150277
0.147229
0.14626
0.145986
0.145919
0.145906
0.145907
0.145912
0.145917
0.145923
0.145929
0.145936
0.145943
0.145951
0.145959
0.145968
0.145977
0.145986
0.145996
0.146007
0.146018
0.146029
0.146041
0.146054
0.146067
0.14608
0.146094
0.146108
0.146123
0.146138
0.146153
0.146169
0.146184
0.1462
0.146215
0.14623
0.146245
0.14626
0.146274
0.146287
0.1463
0.146311
0.146322
0.146331
0.146338
0.146344
0.146348
0.14635
0.14635
0.146348
0.146343
0.146335
0.146325
0.146313
0.146297
0.146279
0.14626
0.146238
0.146216
0.146193
0.146169
0.146143
0.146117
0.146091
0.146066
0.146042
0.14602
0.146
0.145983
0.14597
0.145961
0.145958
0.14596
0.145969
0.145986
0.146011
0.146045
0.146089
0.146144
0.146212
0.146296
0.146397
0.146516
0.146652
0.146808
0.146985
0.147184
0.147407
0.147657
0.147939
0.148503
0.153611
0.186202
0.417802
0.442687
0.419406
0.32866
0.369485
0.237099
0.26157
0.22275
0.228179
0.211364
0.189063
7.21871
1.25675
0.436078
0.24385
0.181907
0.158918
0.150276
0.14723
0.146262
0.145988
0.145921
0.145909
0.14591
0.145914
0.14592
0.145926
0.145932
0.145939
0.145947
0.145955
0.145963
0.145972
0.145981
0.145991
0.146002
0.146012
0.146024
0.146036
0.146048
0.146061
0.146075
0.146088
0.146103
0.146117
0.146132
0.146148
0.146163
0.146179
0.146195
0.146211
0.146226
0.146242
0.146257
0.146272
0.146287
0.146301
0.146313
0.146325
0.146336
0.146346
0.146354
0.14636
0.146365
0.146367
0.146368
0.146366
0.146362
0.146355
0.146345
0.146333
0.146319
0.146302
0.146282
0.146262
0.146241
0.146218
0.146193
0.146168
0.146142
0.146116
0.146091
0.146067
0.146046
0.146026
0.14601
0.145997
0.145989
0.145987
0.145991
0.146002
0.146021
0.146048
0.146085
0.146132
0.146191
0.146264
0.146353
0.146458
0.14658
0.14672
0.146879
0.147059
0.147261
0.147488
0.147744
0.148035
0.148433
0.151524
0.173725
0.345049
0.354357
0.319843
0.30703
0.323313
0.2248
0.252708
0.215699
0.223462
0.206545
0.188495
7.21864
1.25655
0.436004
0.24382
0.181895
0.158913
0.150275
0.147231
0.146263
0.14599
0.145923
0.145911
0.145912
0.145917
0.145922
0.145928
0.145935
0.145942
0.145949
0.145957
0.145966
0.145975
0.145984
0.145995
0.146005
0.146016
0.146028
0.14604
0.146052
0.146065
0.146079
0.146093
0.146108
0.146122
0.146138
0.146153
0.146169
0.146185
0.146201
0.146217
0.146233
0.146249
0.146265
0.14628
0.146295
0.146309
0.146323
0.146335
0.146347
0.146357
0.146365
0.146372
0.146378
0.146381
0.146382
0.146381
0.146378
0.146372
0.146363
0.146352
0.146338
0.146322
0.146304
0.146285
0.146264
0.146242
0.146218
0.146194
0.146169
0.146143
0.146119
0.146096
0.146075
0.146057
0.146042
0.14603
0.146024
0.146023
0.146029
0.146041
0.146062
0.146091
0.14613
0.14618
0.146243
0.14632
0.146412
0.146521
0.146646
0.146789
0.146952
0.147137
0.147345
0.147579
0.147844
0.148149
0.148476
0.150568
0.166771
0.300564
0.305991
0.277058
0.282209
0.282046
0.213586
0.241493
0.209624
0.219088
0.203572
0.188916
7.21852
1.25634
0.43593
0.24379
0.181882
0.158909
0.150274
0.147233
0.146265
0.145992
0.145925
0.145913
0.145915
0.145919
0.145925
0.145931
0.145937
0.145944
0.145952
0.14596
0.145969
0.145978
0.145987
0.145998
0.146008
0.146019
0.146031
0.146043
0.146056
0.146069
0.146083
0.146097
0.146112
0.146127
0.146142
0.146158
0.146174
0.14619
0.146207
0.146223
0.146239
0.146256
0.146272
0.146288
0.146303
0.146318
0.146332
0.146345
0.146357
0.146368
0.146377
0.146385
0.146392
0.146396
0.146398
0.146398
0.146395
0.14639
0.146383
0.146373
0.14636
0.146345
0.146329
0.146311
0.146291
0.14627
0.146247
0.146224
0.146199
0.146175
0.146152
0.14613
0.146109
0.146092
0.146079
0.14607
0.146065
0.146066
0.146074
0.146088
0.14611
0.146141
0.146183
0.146237
0.146305
0.146386
0.146481
0.146593
0.146722
0.14687
0.147038
0.147229
0.147445
0.147689
0.147963
0.148285
0.148573
0.150084
0.162565
0.272622
0.276203
0.259112
0.264193
0.25422
0.204292
0.229491
0.202416
0.212361
0.198411
0.187216
7.21836
1.25613
0.435857
0.24376
0.18187
0.158905
0.150274
0.147234
0.146268
0.145995
0.145928
0.145916
0.145917
0.145922
0.145927
0.145934
0.14594
0.145947
0.145955
0.145963
0.145972
0.145981
0.14599
0.146001
0.146011
0.146023
0.146034
0.146047
0.146059
0.146073
0.146087
0.146101
0.146116
0.146131
0.146147
0.146163
0.146179
0.146196
0.146212
0.146229
0.146246
0.146263
0.14628
0.146296
0.146312
0.146328
0.146342
0.146356
0.146369
0.146381
0.146391
0.1464
0.146407
0.146413
0.146416
0.146417
0.146416
0.146412
0.146406
0.146397
0.146386
0.146372
0.146358
0.146341
0.146323
0.146303
0.146281
0.146259
0.146236
0.146213
0.146191
0.14617
0.146151
0.146135
0.146123
0.146115
0.146113
0.146116
0.146125
0.146141
0.146165
0.1462
0.146247
0.146306
0.146378
0.146462
0.146561
0.146676
0.14681
0.146963
0.147138
0.147337
0.147561
0.147816
0.148101
0.148442
0.148707
0.149851
0.159739
0.253729
0.255766
0.249647
0.253595
0.232786
0.195726
0.21767
0.195392
0.205379
0.193404
0.185262
7.21814
1.25592
0.435784
0.243731
0.181858
0.158901
0.150275
0.147236
0.14627
0.145998
0.145931
0.145919
0.14592
0.145925
0.14593
0.145937
0.145943
0.14595
0.145958
0.145966
0.145975
0.145984
0.145994
0.146004
0.146015
0.146026
0.146038
0.14605
0.146063
0.146077
0.146091
0.146105
0.146121
0.146136
0.146152
0.146168
0.146185
0.146202
0.146219
0.146236
0.146254
0.146271
0.146289
0.146306
0.146322
0.146339
0.146354
0.146369
0.146383
0.146396
0.146407
0.146417
0.146426
0.146432
0.146437
0.146439
0.14644
0.146437
0.146433
0.146425
0.146415
0.146404
0.146391
0.146376
0.14636
0.146341
0.146321
0.1463
0.146279
0.146258
0.146237
0.146218
0.146201
0.146186
0.146175
0.146169
0.146167
0.146172
0.146183
0.146202
0.14623
0.14627
0.146323
0.146386
0.146461
0.146548
0.146651
0.146771
0.14691
0.147069
0.147252
0.147459
0.147694
0.14796
0.148258
0.148623
0.148876
0.149787
0.157736
0.240282
0.240754
0.242835
0.248928
0.216436
0.188957
0.207277
0.188977
0.198456
0.188113
0.182556
7.21788
1.25571
0.435712
0.243702
0.181846
0.158898
0.150275
0.147239
0.146273
0.146001
0.145934
0.145922
0.145924
0.145928
0.145934
0.14594
0.145947
0.145954
0.145962
0.14597
0.145979
0.145988
0.145998
0.146008
0.146019
0.14603
0.146042
0.146055
0.146068
0.146081
0.146096
0.14611
0.146126
0.146142
0.146158
0.146174
0.146191
0.146209
0.146227
0.146244
0.146262
0.14628
0.146298
0.146316
0.146334
0.146351
0.146368
0.146383
0.146398
0.146412
0.146425
0.146437
0.146447
0.146455
0.146461
0.146465
0.146467
0.146466
0.146463
0.146458
0.14645
0.146441
0.14643
0.146417
0.146402
0.146385
0.146367
0.146348
0.146329
0.146309
0.146291
0.146273
0.146258
0.146246
0.146236
0.146231
0.146231
0.146237
0.146251
0.146273
0.146307
0.146352
0.146408
0.146475
0.146553
0.146645
0.146752
0.146877
0.147022
0.147189
0.147379
0.147597
0.147843
0.148124
0.148436
0.148829
0.149079
0.149852
0.156287
0.230405
0.229605
0.236924
0.247579
0.204085
0.184006
0.198152
0.183248
0.191918
0.182845
0.179231
7.21757
1.2555
0.43564
0.243674
0.181835
0.158895
0.150276
0.147241
0.146277
0.146005
0.145938
0.145926
0.145927
0.145932
0.145938
0.145944
0.145951
0.145958
0.145966
0.145974
0.145983
0.145992
0.146002
0.146012
0.146023
0.146035
0.146047
0.146059
0.146073
0.146087
0.146101
0.146116
0.146132
0.146148
0.146164
0.146181
0.146199
0.146217
0.146235
0.146253
0.146272
0.146291
0.14631
0.146328
0.146347
0.146365
0.146383
0.1464
0.146416
0.146431
0.146446
0.146459
0.14647
0.14648
0.146488
0.146494
0.146498
0.146499
0.146498
0.146495
0.146489
0.146483
0.146474
0.146463
0.14645
0.146436
0.14642
0.146403
0.146386
0.146368
0.146352
0.146337
0.146323
0.146313
0.146306
0.146303
0.146305
0.146313
0.146331
0.146358
0.146396
0.146444
0.146503
0.146573
0.146655
0.146752
0.146865
0.146996
0.147148
0.147322
0.147521
0.14775
0.14801
0.148307
0.148637
0.149063
0.149318
0.150026
0.15525
0.222997
0.221118
0.231706
0.247857
0.195306
0.180526
0.189966
0.178535
0.18581
0.177673
0.174846
7.21721
1.25529
0.435569
0.243646
0.181825
0.158892
0.150277
0.147244
0.146281
0.146009
0.145942
0.14593
0.145932
0.145936
0.145942
0.145948
0.145955
0.145962
0.14597
0.145978
0.145987
0.145996
0.146006
0.146017
0.146028
0.146039
0.146052
0.146065
0.146078
0.146092
0.146107
0.146122
0.146138
0.146154
0.146171
0.146189
0.146207
0.146225
0.146244
0.146263
0.146283
0.146302
0.146322
0.146342
0.146361
0.146381
0.146399
0.146418
0.146436
0.146453
0.146469
0.146483
0.146497
0.146509
0.146519
0.146527
0.146533
0.146536
0.146538
0.146537
0.146534
0.14653
0.146524
0.146516
0.146505
0.146493
0.14648
0.146465
0.14645
0.146436
0.146421
0.146408
0.146397
0.146389
0.146384
0.146384
0.146389
0.146402
0.146423
0.146454
0.146495
0.146547
0.146609
0.146683
0.146769
0.146871
0.14699
0.147127
0.147286
0.147468
0.147678
0.147919
0.148195
0.148511
0.148863
0.149328
0.149594
0.150297
0.154551
0.217346
0.214504
0.226963
0.248975
0.189582
0.177656
0.182728
0.174708
0.179967
0.172201
0.16965
7.21681
1.25508
0.435499
0.243619
0.181815
0.15889
0.150279
0.147248
0.146285
0.146013
0.145946
0.145935
0.145936
0.145941
0.145946
0.145953
0.145959
0.145967
0.145975
0.145983
0.145992
0.146001
0.146011
0.146022
0.146033
0.146045
0.146057
0.14607
0.146084
0.146098
0.146113
0.146129
0.146145
0.146162
0.146179
0.146197
0.146216
0.146235
0.146254
0.146274
0.146294
0.146315
0.146336
0.146356
0.146377
0.146398
0.146418
0.146438
0.146457
0.146476
0.146494
0.146511
0.146526
0.14654
0.146553
0.146563
0.146572
0.146578
0.146583
0.146585
0.146585
0.146584
0.146581
0.146576
0.146568
0.146559
0.146548
0.146536
0.146524
0.146512
0.1465
0.14649
0.146481
0.146476
0.146474
0.146476
0.146485
0.146502
0.146527
0.146562
0.146606
0.146661
0.146726
0.146804
0.146895
0.147002
0.147126
0.14727
0.147437
0.147628
0.14785
0.148105
0.148399
0.148737
0.149114
0.149628
0.149911
0.15066
0.154155
0.212956
0.209288
0.222682
0.250912
0.186107
0.175018
0.176615
0.170526
0.174192
0.166517
0.164457
7.21636
1.25487
0.43543
0.243593
0.181805
0.158888
0.150281
0.147252
0.146289
0.146017
0.145951
0.145939
0.145941
0.145945
0.145951
0.145957
0.145964
0.145972
0.145979
0.145988
0.145997
0.146006
0.146017
0.146027
0.146039
0.146051
0.146063
0.146076
0.14609
0.146105
0.14612
0.146136
0.146153
0.14617
0.146188
0.146206
0.146225
0.146245
0.146265
0.146286
0.146307
0.146329
0.146351
0.146373
0.146395
0.146417
0.146439
0.14646
0.146482
0.146502
0.146522
0.146541
0.146559
0.146576
0.146591
0.146604
0.146616
0.146625
0.146633
0.146638
0.146643
0.146645
0.146645
0.146643
0.146639
0.146633
0.146626
0.146617
0.146608
0.146599
0.14659
0.146583
0.146577
0.146575
0.146576
0.146583
0.146595
0.146616
0.146645
0.146683
0.14673
0.146788
0.146857
0.146938
0.147034
0.147146
0.147275
0.147426
0.147601
0.147802
0.148036
0.148307
0.148622
0.148987
0.149394
0.149964
0.150274
0.151114
0.154051
0.209441
0.20517
0.218919
0.25393
0.184235
0.172568
0.171452
0.166768
0.167631
0.161948
0.15919
7.21586
1.25466
0.435362
0.243567
0.181796
0.158887
0.150284
0.147256
0.146294
0.146022
0.145956
0.145944
0.145946
0.145951
0.145956
0.145963
0.145969
0.145977
0.145985
0.145993
0.146002
0.146012
0.146022
0.146033
0.146045
0.146057
0.146069
0.146083
0.146097
0.146112
0.146128
0.146144
0.146161
0.146179
0.146197
0.146216
0.146236
0.146256
0.146277
0.146299
0.146321
0.146344
0.146367
0.14639
0.146414
0.146437
0.146461
0.146485
0.146508
0.146531
0.146553
0.146575
0.146596
0.146615
0.146633
0.14665
0.146665
0.146678
0.146689
0.146699
0.146707
0.146713
0.146717
0.146719
0.146719
0.146717
0.146713
0.146709
0.146704
0.146698
0.146693
0.146689
0.146687
0.146688
0.146694
0.146704
0.14672
0.146745
0.146777
0.146818
0.146868
0.146929
0.147001
0.147086
0.147186
0.147302
0.147437
0.147595
0.147778
0.14799
0.148237
0.148526
0.148865
0.149261
0.149704
0.150343
0.150688
0.151659
0.154237
0.206511
0.201956
0.215721
0.257967
0.183552
0.170231
0.166432
0.163509
0.162371
0.158322
0.155014
7.21531
1.25445
0.435295
0.243542
0.181787
0.158886
0.150286
0.14726
0.146299
0.146028
0.145961
0.14595
0.145951
0.145956
0.145962
0.145968
0.145975
0.145982
0.14599
0.145999
0.146008
0.146018
0.146028
0.146039
0.146051
0.146063
0.146076
0.14609
0.146104
0.14612
0.146136
0.146152
0.14617
0.146188
0.146207
0.146227
0.146247
0.146268
0.14629
0.146313
0.146336
0.14636
0.146384
0.146409
0.146434
0.14646
0.146486
0.146511
0.146537
0.146562
0.146587
0.146612
0.146636
0.146659
0.14668
0.146701
0.146719
0.146736
0.146752
0.146766
0.146779
0.14679
0.146798
0.146805
0.146809
0.146812
0.146813
0.146813
0.146813
0.146812
0.146811
0.146811
0.146814
0.146819
0.146828
0.146842
0.146863
0.14689
0.146926
0.14697
0.147023
0.147086
0.147161
0.147249
0.147352
0.147472
0.147612
0.147776
0.147968
0.148191
0.148453
0.148762
0.149128
0.149561
0.150047
0.150767
0.15116
0.152302
0.154711
0.204079
0.199455
0.213051
0.261783
0.183315
0.167816
0.163098
0.160796
0.158664
0.155507
0.152265
7.21472
1.25425
0.435229
0.243517
0.181779
0.158885
0.150289
0.147264
0.146304
0.146033
0.145967
0.145955
0.145957
0.145962
0.145967
0.145974
0.145981
0.145988
0.145996
0.146005
0.146014
0.146024
0.146035
0.146046
0.146058
0.14607
0.146083
0.146097
0.146112
0.146128
0.146144
0.146161
0.146179
0.146198
0.146218
0.146238
0.146259
0.146281
0.146304
0.146328
0.146353
0.146378
0.146404
0.14643
0.146457
0.146484
0.146512
0.14654
0.146569
0.146597
0.146625
0.146653
0.14668
0.146706
0.146732
0.146757
0.14678
0.146802
0.146822
0.146842
0.14686
0.146876
0.14689
0.146902
0.146912
0.14692
0.146927
0.146933
0.146937
0.146941
0.146946
0.146951
0.146959
0.146969
0.146983
0.147001
0.147026
0.147057
0.147095
0.147141
0.147197
0.147262
0.147338
0.147428
0.147533
0.147657
0.147802
0.147972
0.148171
0.148406
0.148684
0.149015
0.149413
0.149889
0.150428
0.151245
0.151699
0.153053
0.155458
0.202251
0.197381
0.210759
0.267908
0.182832
0.165975
0.161104
0.158755
0.15623
0.153452
0.150687
7.21408
1.25405
0.435164
0.243493
0.181771
0.158885
0.150292
0.147269
0.146309
0.146039
0.145973
0.145961
0.145963
0.145968
0.145973
0.14598
0.145987
0.145995
0.146003
0.146011
0.146021
0.146031
0.146041
0.146053
0.146065
0.146078
0.146091
0.146105
0.14612
0.146136
0.146153
0.146171
0.146189
0.146209
0.146229
0.14625
0.146272
0.146295
0.146319
0.146344
0.14637
0.146397
0.146424
0.146452
0.146481
0.146511
0.146541
0.146572
0.146603
0.146634
0.146666
0.146697
0.146728
0.146759
0.146789
0.146819
0.146847
0.146874
0.1469
0.146926
0.14695
0.146973
0.146993
0.147012
0.147028
0.147043
0.147057
0.147069
0.14708
0.147091
0.147102
0.147113
0.147127
0.147142
0.147161
0.147185
0.147213
0.147247
0.147288
0.147337
0.147393
0.147459
0.147537
0.147627
0.147734
0.147859
0.148007
0.148181
0.148389
0.148635
0.14893
0.149285
0.149721
0.150248
0.150851
0.151783
0.15232
0.153933
0.156459
0.201102
0.195776
0.208852
0.276121
0.184287
0.165388
0.160426
0.157516
0.154854
0.152182
0.149903
7.2134
1.25384
0.4351
0.24347
0.181764
0.158885
0.150296
0.147275
0.146315
0.146045
0.145979
0.145967
0.145969
0.145974
0.14598
0.145986
0.145993
0.146001
0.146009
0.146018
0.146028
0.146038
0.146049
0.14606
0.146072
0.146085
0.146099
0.146114
0.146129
0.146145
0.146163
0.146181
0.1462
0.14622
0.146241
0.146263
0.146286
0.14631
0.146335
0.146361
0.146389
0.146417
0.146446
0.146476
0.146507
0.146539
0.146572
0.146606
0.14664
0.146675
0.14671
0.146746
0.146781
0.146817
0.146852
0.146887
0.146921
0.146954
0.146988
0.14702
0.147051
0.147081
0.147109
0.147136
0.147161
0.147184
0.147205
0.147225
0.147245
0.147263
0.147282
0.147301
0.147321
0.147343
0.147368
0.147397
0.14743
0.147467
0.147511
0.147561
0.147618
0.147684
0.14776
0.147851
0.147956
0.148081
0.14823
0.148408
0.148622
0.14888
0.149192
0.149576
0.150054
0.150642
0.151321
0.152393
0.153037
0.154967
0.157714
0.20064
0.194768
0.207646
0.284004
0.185936
0.165401
0.160616
0.157037
0.154337
0.151737
0.149575
7.21267
1.25364
0.435037
0.243447
0.181757
0.158885
0.1503
0.14728
0.146321
0.146051
0.145985
0.145974
0.145975
0.14598
0.145986
0.145993
0.146
0.146008
0.146016
0.146025
0.146035
0.146045
0.146056
0.146068
0.14608
0.146093
0.146107
0.146122
0.146138
0.146155
0.146173
0.146191
0.146211
0.146232
0.146254
0.146276
0.1463
0.146326
0.146352
0.14638
0.146408
0.146438
0.14647
0.146502
0.146535
0.14657
0.146606
0.146643
0.14668
0.146719
0.146758
0.146798
0.146839
0.14688
0.146921
0.146962
0.147003
0.147044
0.147085
0.147125
0.147165
0.147203
0.147241
0.147276
0.147311
0.147344
0.147375
0.147405
0.147435
0.147463
0.147491
0.147519
0.147548
0.147578
0.14761
0.147645
0.147683
0.147724
0.14777
0.147821
0.147879
0.147943
0.148016
0.148103
0.148206
0.148328
0.148475
0.148654
0.148875
0.149143
0.149473
0.149888
0.150416
0.151078
0.151851
0.153092
0.153874
0.156193
0.159257
0.200865
0.194267
0.207086
0.293459
0.187769
0.166012
0.161623
0.157347
0.154639
0.152027
0.149781
7.2119
1.25344
0.434975
0.243425
0.18175
0.158886
0.150304
0.147285
0.146327
0.146057
0.145992
0.14598
0.145982
0.145987
0.145993
0.146
0.146007
0.146015
0.146023
0.146032
0.146042
0.146053
0.146064
0.146076
0.146088
0.146102
0.146116
0.146132
0.146148
0.146165
0.146183
0.146202
0.146223
0.146244
0.146267
0.146291
0.146316
0.146342
0.14637
0.146399
0.146429
0.146461
0.146495
0.146529
0.146565
0.146603
0.146642
0.146682
0.146724
0.146767
0.146811
0.146856
0.146902
0.146949
0.146997
0.147045
0.147094
0.147143
0.147193
0.147243
0.147292
0.147341
0.147389
0.147436
0.147482
0.147527
0.147571
0.147613
0.147655
0.147695
0.147735
0.147775
0.147814
0.147854
0.147895
0.147937
0.147981
0.148027
0.148075
0.148127
0.148184
0.148245
0.148312
0.148393
0.148491
0.148607
0.148749
0.148927
0.149151
0.149429
0.149779
0.150229
0.150816
0.151566
0.152455
0.153901
0.154862
0.157667
0.161158
0.201795
0.194219
0.207125
0.304628
0.189999
0.167328
0.163312
0.158521
0.155829
0.153075
0.150622
7.21108
1.25325
0.434915
0.243403
0.181744
0.158887
0.150308
0.147291
0.146334
0.146064
0.145998
0.145987
0.145989
0.145994
0.146
0.146007
0.146014
0.146022
0.146031
0.14604
0.14605
0.14606
0.146072
0.146084
0.146097
0.146111
0.146125
0.146141
0.146158
0.146175
0.146194
0.146214
0.146235
0.146257
0.146281
0.146306
0.146332
0.14636
0.146389
0.146419
0.146452
0.146486
0.146521
0.146558
0.146597
0.146638
0.14668
0.146724
0.14677
0.146818
0.146867
0.146918
0.146971
0.147025
0.14708
0.147136
0.147194
0.147252
0.147313
0.147373
0.147435
0.147496
0.147557
0.147618
0.147678
0.147737
0.147796
0.147854
0.147911
0.147966
0.148021
0.148075
0.148129
0.148181
0.148234
0.148285
0.148337
0.148388
0.148439
0.148491
0.148546
0.148603
0.148662
0.148733
0.14882
0.148927
0.149062
0.149235
0.149458
0.149746
0.150118
0.150609
0.151265
0.152122
0.153155
0.154855
0.156047
0.15947
0.163563
0.203427
0.19461
0.207674
0.3174
0.19261
0.169323
0.165608
0.160542
0.157914
0.154939
0.152151
7.21022
1.25305
0.434856
0.243383
0.181738
0.158888
0.150312
0.147297
0.14634
0.146071
0.146005
0.145994
0.145996
0.146001
0.146007
0.146014
0.146021
0.146029
0.146038
0.146047
0.146058
0.146068
0.14608
0.146092
0.146106
0.14612
0.146135
0.146151
0.146168
0.146186
0.146206
0.146226
0.146248
0.146271
0.146295
0.146321
0.146349
0.146378
0.146409
0.146441
0.146475
0.146511
0.146549
0.146589
0.146631
0.146675
0.146721
0.14677
0.14682
0.146873
0.146928
0.146986
0.147045
0.147107
0.147171
0.147236
0.147304
0.147374
0.147446
0.14752
0.147594
0.14767
0.147747
0.147824
0.147902
0.147979
0.148056
0.148133
0.148209
0.148285
0.148359
0.148431
0.148502
0.148572
0.148639
0.148703
0.148765
0.148823
0.148879
0.148932
0.148985
0.149035
0.149083
0.149142
0.149214
0.149305
0.149427
0.149591
0.149812
0.150109
0.150506
0.151045
0.151783
0.15277
0.153985
0.156
0.157494
0.161699
0.166556
0.205795
0.195483
0.20893
0.331677
0.195556
0.171983
0.168551
0.163201
0.160588
0.157527
0.154397
7.20932
1.25286
0.434798
0.243363
0.181732
0.158889
0.150317
0.147303
0.146347
0.146078
0.146012
0.146001
0.146003
0.146008
0.146014
0.146021
0.146029
0.146037
0.146046
0.146055
0.146066
0.146077
0.146088
0.146101
0.146115
0.146129
0.146145
0.146161
0.146179
0.146197
0.146217
0.146239
0.146261
0.146285
0.146311
0.146338
0.146367
0.146397
0.146429
0.146464
0.1465
0.146538
0.146579
0.146622
0.146667
0.146715
0.146765
0.146818
0.146874
0.146933
0.146994
0.147059
0.147126
0.147196
0.14727
0.147346
0.147425
0.147508
0.147594
0.147683
0.147774
0.147867
0.147963
0.14806
0.148158
0.148258
0.148358
0.148459
0.14856
0.14866
0.148759
0.148856
0.14895
0.149042
0.149129
0.149211
0.149287
0.149356
0.149418
0.149473
0.149524
0.149567
0.149603
0.149645
0.149699
0.149767
0.149868
0.150019
0.150236
0.150543
0.150968
0.151563
0.152402
0.153549
0.154995
0.1574
0.159303
0.16448
0.170117
0.208979
0.196906
0.211237
0.347456
0.198713
0.175312
0.172112
0.166436
0.163761
0.160564
0.157018
7.20837
1.25267
0.434741
0.243343
0.181727
0.158891
0.150322
0.14731
0.146354
0.146085
0.146019
0.146008
0.14601
0.146015
0.146022
0.146029
0.146036
0.146045
0.146054
0.146063
0.146074
0.146085
0.146097
0.14611
0.146124
0.146139
0.146155
0.146172
0.14619
0.146209
0.14623
0.146252
0.146275
0.1463
0.146327
0.146355
0.146385
0.146417
0.146451
0.146487
0.146526
0.146567
0.14661
0.146656
0.146705
0.146757
0.146812
0.14687
0.146931
0.146996
0.147065
0.147137
0.147213
0.147294
0.147378
0.147466
0.147559
0.147656
0.147759
0.147865
0.147975
0.148089
0.148207
0.148329
0.148453
0.14858
0.14871
0.148841
0.148973
0.149105
0.149236
0.149365
0.149491
0.149612
0.149727
0.149834
0.149931
0.150017
0.150091
0.150151
0.1502
0.150235
0.150258
0.15028
0.150311
0.150354
0.150427
0.150556
0.150766
0.151081
0.151541
0.152202
0.153164
0.154508
0.156255
0.159145
0.16161
0.167885
0.174363
0.213089
0.198957
0.214792
0.36439
0.202196
0.179518
0.176438
0.170322
0.167482
0.163999
0.159849
7.20738
1.25248
0.434686
0.243325
0.181723
0.158892
0.150327
0.147316
0.146361
0.146092
0.146027
0.146015
0.146018
0.146023
0.146029
0.146036
0.146044
0.146053
0.146062
0.146072
0.146082
0.146094
0.146106
0.146119
0.146133
0.146149
0.146165
0.146182
0.146201
0.146221
0.146242
0.146265
0.146289
0.146315
0.146343
0.146372
0.146404
0.146438
0.146474
0.146512
0.146553
0.146596
0.146643
0.146692
0.146745
0.146801
0.146861
0.146924
0.146992
0.147064
0.14714
0.147222
0.147308
0.147399
0.147495
0.147597
0.147705
0.14782
0.147941
0.148068
0.148201
0.14834
0.148485
0.148636
0.148792
0.148954
0.149119
0.149289
0.149461
0.149635
0.149808
0.14998
0.150149
0.150311
0.150465
0.150607
0.150735
0.150847
0.15094
0.151011
0.151061
0.151092
0.151101
0.1511
0.151104
0.151117
0.151158
0.151258
0.151455
0.151779
0.152279
0.15302
0.154137
0.155726
0.157868
0.161359
0.164545
0.171871
0.179442
0.218255
0.201757
0.219918
0.382533
0.205656
0.184354
0.181306
0.174745
0.171741
0.167913
0.162978
7.20636
1.2523
0.434633
0.243307
0.181718
0.158894
0.150332
0.147322
0.146368
0.146099
0.146034
0.146023
0.146025
0.14603
0.146037
0.146044
0.146052
0.146061
0.14607
0.14608
0.146091
0.146103
0.146115
0.146129
0.146143
0.146159
0.146175
0.146193
0.146212
0.146233
0.146255
0.146279
0.146304
0.146331
0.14636
0.146391
0.146424
0.146459
0.146497
0.146537
0.146581
0.146627
0.146677
0.14673
0.146787
0.146848
0.146913
0.146982
0.147057
0.147136
0.147221
0.147312
0.147409
0.147513
0.147623
0.14774
0.147866
0.148001
0.148143
0.148294
0.148454
0.148623
0.148801
0.148987
0.149183
0.149387
0.149598
0.149817
0.150041
0.150269
0.150499
0.150728
0.150954
0.151174
0.151382
0.151576
0.151751
0.151903
0.152027
0.15212
0.152179
0.152209
0.152208
0.152186
0.152156
0.152135
0.15214
0.152205
0.15238
0.152715
0.153265
0.154102
0.155414
0.157308
0.159971
0.164156
0.168054
0.176559
0.185568
0.224631
0.205513
0.226974
0.400261
0.20974
0.190505
0.187259
0.179997
0.176526
0.172101
0.166212
7.20529
1.25212
0.434581
0.243289
0.181714
0.158897
0.150338
0.147329
0.146374
0.146106
0.146041
0.14603
0.146032
0.146038
0.146045
0.146052
0.14606
0.146069
0.146078
0.146088
0.146099
0.146111
0.146124
0.146138
0.146153
0.146169
0.146186
0.146204
0.146224
0.146245
0.146268
0.146293
0.146319
0.146347
0.146377
0.146409
0.146444
0.146481
0.146521
0.146564
0.14661
0.146659
0.146712
0.146769
0.14683
0.146896
0.146967
0.147043
0.147125
0.147213
0.147307
0.147409
0.147518
0.147635
0.147761
0.147896
0.148042
0.148199
0.148367
0.148546
0.148738
0.148942
0.14916
0.14939
0.149634
0.149891
0.15016
0.150441
0.150732
0.151031
0.151336
0.151643
0.151949
0.152248
0.152536
0.152805
0.153049
0.153264
0.15344
0.153571
0.153654
0.153691
0.153687
0.153648
0.153584
0.153525
0.153486
0.153512
0.153661
0.154003
0.154619
0.155571
0.157131
0.159398
0.162644
0.167472
0.172237
0.182104
0.193013
0.232394
0.210587
0.236862
0.419071
0.213568
0.196912
0.193423
0.185647
0.181885
0.17696
0.169909
7.20418
1.25194
0.434531
0.243273
0.181711
0.1589
0.150343
0.147334
0.146381
0.146113
0.146048
0.146038
0.14604
0.146046
0.146052
0.14606
0.146068
0.146077
0.146086
0.146097
0.146108
0.14612
0.146133
0.146148
0.146163
0.146179
0.146197
0.146216
0.146236
0.146258
0.146282
0.146307
0.146334
0.146363
0.146395
0.146428
0.146465
0.146504
0.146546
0.146591
0.14664
0.146692
0.146749
0.14681
0.146876
0.146947
0.147024
0.147107
0.147197
0.147294
0.147398
0.147512
0.147634
0.147767
0.14791
0.148066
0.148234
0.148417
0.148614
0.148827
0.149056
0.149303
0.149568
0.149851
0.150155
0.150477
0.15082
0.151181
0.151559
0.151952
0.152357
0.15277
0.153186
0.153598
0.153998
0.154377
0.154728
0.15504
0.155301
0.155498
0.15563
0.155695
0.1557
0.155651
0.155556
0.155453
0.155367
0.155345
0.155462
0.15581
0.156508
0.157601
0.159462
0.162057
0.16582
0.171382
0.177238
0.188699
0.202107
0.241785
0.217664
0.250204
0.434378
0.219116
0.205429
0.201241
0.192274
0.187467
0.181499
0.173031
7.20304
1.25177
0.434483
0.243257
0.181707
0.158906
0.150348
0.147339
0.146387
0.14612
0.146056
0.146045
0.146047
0.146053
0.14606
0.146068
0.146076
0.146085
0.146095
0.146105
0.146117
0.146129
0.146143
0.146157
0.146173
0.14619
0.146208
0.146227
0.146248
0.146271
0.146295
0.146321
0.146349
0.14638
0.146412
0.146448
0.146486
0.146527
0.146571
0.146619
0.146671
0.146726
0.146787
0.146852
0.146923
0.147
0.147083
0.147174
0.147272
0.147379
0.147495
0.147621
0.147759
0.147908
0.148071
0.148249
0.148444
0.148656
0.148887
0.149138
0.149412
0.149709
0.150031
0.15038
0.150756
0.151162
0.151596
0.15206
0.152551
0.153069
0.153609
0.154167
0.154736
0.155306
0.155869
0.156412
0.156924
0.157387
0.157781
0.158092
0.158315
0.158443
0.158478
0.158432
0.158318
0.158166
0.158025
0.157947