/*--------------------------------*- C++ -*----------------------------------*\
| =========                 |                                                 |
| \\      /  F ield         | OpenFOAM: The Open Source CFD Toolbox           |
|  \\    /   O peration     | Version:  v2106                                 |
|   \\  /    A nd           | Website:  www.openfoam.com                      |
|    \\/     M anipulation  |                                                 |
\*---------------------------------------------------------------------------*/
FoamFile
{
    version     2.0;
    format      ascii;
    arch        "LSB;label=32;scalar=64";
    class       volScalarField;
    location    "0.7";
    object      p;
}
// * * * * * * * * * * * * * * * * * * * * * * * * * * * * * * * * * * * * * //

dimensions      [1 -1 -2 0 0 0 0];

internalField   nonuniform List<scalar> 
29678
(
14641.8
14494.7
14347.5
14200.4
14053.2
13906.1
13758.9
13611.8
13464.6
13317.5
13170.3
13023.2
12876.1
12728.9
12581.8
12434.6
12287.5
12140.3
11993.2
11846
11698.9
11551.8
11404.6
11257.5
11110.3
10963.2
10816
10668.9
10521.8
10374.6
10227.5
10080.3
9933.2
9786.06
9638.92
9491.78
9344.64
9197.51
9050.37
8903.23
8756.09
8608.95
8461.81
8314.67
8167.54
8020.4
7873.26
7726.12
7578.98
7431.84
7284.7
7137.56
6990.42
6843.28
6696.14
6549
6401.85
6254.71
6107.57
5960.42
5813.28
5666.14
5518.99
5371.85
5224.7
5077.56
4930.41
4783.26
4636.11
4488.97
4341.82
4194.67
4047.53
3900.38
3753.24
3606.1
3458.95
3311.81
3164.67
3017.54
2870.4
2723.27
2576.14
2429.01
2281.89
2134.77
1987.65
1840.54
1693.43
1546.32
1399.21
1252.11
1105.01
957.91
810.813
663.715
516.613
369.535
222.407
75.3302
0.759123
-0.293167
-0.532579
-0.675382
-0.873484
-1.04053
-1.225
-1.40005
-1.58011
-1.75528
14642.6
14495.5
14348.3
14201.2
14054
13906.9
13759.7
13612.6
13465.5
13318.3
13171.2
13024
12876.9
12729.8
12582.6
12435.5
12288.4
12141.2
11994.1
11847
11699.8
11552.7
11405.6
11258.4
11111.3
10964.2
10817.1
10669.9
10522.8
10375.7
10228.6
10081.5
9934.35
9787.23
9640.11
9492.99
9345.88
9198.76
9051.65
8904.53
8757.42
8610.3
8463.19
8316.07
8168.95
8021.84
7874.72
7727.61
7580.49
7433.37
7286.25
7139.13
6992.01
6844.89
6697.76
6550.64
6403.51
6256.39
6109.26
5962.13
5815
5667.86
5520.73
5373.6
5226.46
5079.32
4932.19
4785.05
4637.91
4490.77
4343.64
4196.5
4049.36
3902.23
3755.1
3607.97
3460.85
3313.73
3166.61
3019.5
2872.4
2725.3
2578.21
2431.13
2284.06
2137
1989.94
1842.89
1695.86
1548.83
1401.81
1254.81
1107.81
960.815
813.825
666.83
519.83
372.825
225.729
78.5634
2.42789
-0.294976
-0.528986
-0.671905
-0.869134
-1.03749
-1.22206
-1.39765
-1.57792
-1.75362
14643.4
14496.3
14349.1
14202
14054.8
13907.7
13760.5
13613.4
13466.3
13319.1
13172
13024.9
12877.7
12730.6
12583.5
12436.4
12289.2
12142.1
11995
11847.9
11700.8
11553.7
11406.5
11259.4
11112.3
10965.2
10818.1
10671
10523.9
10376.8
10229.7
10082.6
9935.5
9788.4
9641.3
9494.21
9347.11
9200.02
9052.93
8905.83
8758.74
8611.65
8464.56
8317.47
8170.37
8023.28
7876.19
7729.09
7582
7434.9
7287.8
7140.7
6993.6
6846.5
6699.39
6552.28
6405.17
6258.06
6110.95
5963.83
5816.71
5669.59
5522.47
5375.34
5228.22
5081.09
4933.96
4786.83
4639.7
4492.57
4345.44
4198.32
4051.19
3904.07
3756.95
3609.83
3462.73
3315.63
3168.54
3021.45
2874.38
2727.32
2580.27
2433.24
2286.21
2139.21
1992.21
1845.24
1698.28
1551.33
1404.4
1257.49
1110.59
963.707
816.828
669.955
523.094
376.251
229.344
82.6706
4.46913
-0.295159
-0.51695
-0.669098
-0.86459
-1.03458
-1.2189
-1.39534
-1.57599
-1.7536
14644.2
14497.1
14349.9
14202.8
14055.6
13908.5
13761.3
13614.2
13467.1
13320
13172.8
13025.7
12878.6
12731.5
12584.3
12437.2
12290.1
12143
11995.9
11848.8
11701.7
11554.6
11407.5
11260.4
11113.3
10966.2
10819.1
10672
10525
10377.9
10230.8
10083.7
9936.64
9789.57
9642.49
9495.42
9348.35
9201.28
9054.21
8907.14
8760.07
8613
8465.93
8318.86
8171.79
8024.72
7877.65
7730.58
7583.5
7436.43
7289.35
7142.27
6995.19
6848.11
6701.02
6553.93
6406.83
6259.74
6112.64
5965.53
5818.43
5671.32
5524.21
5377.09
5229.97
5082.85
4935.73
4788.61
4641.49
4494.36
4347.24
4200.13
4053.01
3905.9
3758.79
3611.69
3464.6
3317.52
3170.45
3023.39
2876.35
2729.33
2582.32
2435.32
2288.35
2141.4
1994.47
1847.56
1700.68
1553.81
1406.98
1260.16
1113.36
966.584
819.821
673.074
526.347
379.641
232.872
86.4557
6.36615
-0.296371
-0.50809
-0.666969
-0.860353
-1.03219
-1.21638
-1.39348
-1.57438
-1.75253
14645
14497.8
14350.7
14203.6
14056.4
13909.3
13762.1
13615
13467.9
13320.8
13173.6
13026.5
12879.4
12732.3
12585.2
12438.1
12291
12143.9
11996.8
11849.7
11702.6
11555.5
11408.5
11261.4
11114.3
10967.2
10820.2
10673.1
10526
10379
10231.9
10084.8
9937.79
9790.73
9643.68
9496.63
9349.58
9202.53
9055.49
8908.44
8761.39
8614.35
8467.3
8320.26
8173.21
8026.16
7879.12
7732.07
7585.01
7437.96
7290.9
7143.84
6996.78
6849.72
6702.65
6555.57
6408.5
6261.42
6114.33
5967.24
5820.15
5673.05
5525.95
5378.84
5231.73
5084.62
4937.5
4790.39
4643.27
4496.16
4349.04
4201.93
4054.83
3907.72
3760.63
3613.54
3466.47
3319.4
3172.35
3025.32
2878.31
2731.31
2584.34
2437.39
2290.47
2143.57
1996.7
1849.87
1703.06
1556.28
1409.53
1262.81
1116.11
969.441
822.797
676.175
529.586
383.017
236.381
90.1333
8.2351
-0.296474
-0.500753
-0.665389
-0.856788
-1.0303
-1.21429
-1.39197
-1.57307
-1.75174
14645.8
14498.6
14351.5
14204.3
14057.2
13910.1
13762.9
13615.8
13468.7
13321.6
13174.5
13027.4
12880.3
12733.2
12586.1
12439
12291.9
12144.8
11997.7
11850.6
11703.6
11556.5
11409.4
11262.4
11115.3
10968.2
10821.2
10674.1
10527.1
10380
10233
10086
9938.93
9791.9
9644.87
9497.84
9350.81
9203.79
9056.76
8909.74
8762.72
8615.7
8468.67
8321.65
8174.63
8027.61
7880.58
7733.55
7586.52
7439.49
7292.46
7145.42
6998.38
6851.33
6704.28
6557.23
6410.16
6263.1
6116.03
5968.95
5821.87
5674.78
5527.69
5380.59
5233.49
5086.39
4939.28
4792.17
4645.06
4497.95
4350.84
4203.73
4056.64
3909.54
3762.46
3615.38
3468.32
3321.27
3174.24
3027.23
2880.24
2733.28
2586.34
2439.44
2292.57
2145.72
1998.91
1852.14
1705.4
1558.71
1412.05
1265.42
1118.83
972.273
825.749
679.253
532.798
386.363
239.865
93.7497
10.082
-0.296864
-0.495487
-0.664369
-0.853972
-1.02893
-1.21265
-1.3908
-1.57202
-1.75102
14646.6
14499.4
14352.3
14205.1
14058
13910.9
13763.7
13616.6
13469.5
13322.4
13175.3
13028.2
12881.1
12734
12586.9
12439.8
12292.7
12145.7
11998.6
11851.5
11704.5
11557.4
11410.4
11263.3
11116.3
10969.2
10822.2
10675.2
10528.1
10381.1
10234.1
10087.1
9940.07
9793.06
9646.05
9499.05
9352.04
9205.04
9058.04
8911.04
8764.04
8617.04
8470.05
8323.05
8176.05
8029.05
7882.05
7735.04
7588.04
7441.03
7294.01
7147
6999.98
6852.95
6705.92
6558.88
6411.84
6264.79
6117.73
5970.67
5823.6
5676.52
5529.44
5382.35
5235.25
5088.16
4941.05
4793.95
4646.84
4499.74
4352.63
4205.53
4058.44
3911.35
3764.27
3617.2
3470.15
3323.12
3176.11
3029.12
2882.15
2735.22
2588.32
2441.45
2294.62
2147.83
2001.08
1854.38
1707.72
1561.1
1414.53
1268
1121.52
975.073
828.67
682.303
535.981
389.682
243.326
97.3487
11.9266
-0.297465
-0.491934
-0.66387
-0.851927
-1.02804
-1.21143
-1.38998
-1.57123
-1.75046
14647.3
14500.2
14353
14205.9
14058.8
13911.6
13764.5
13617.4
13470.3
13323.2
13176.1
13029
12881.9
12734.8
12587.8
12440.7
12293.6
12146.6
11999.5
11852.4
11705.4
11558.4
11411.3
11264.3
11117.3
10970.2
10823.2
10676.2
10529.2
10382.2
10235.2
10088.2
9941.21
9794.22
9647.23
9500.25
9353.27
9206.29
9059.31
8912.34
8765.36
8618.39
8471.42
8324.44
8177.47
8030.49
7883.52
7736.54
7589.55
7442.57
7295.58
7148.58
7001.58
6854.57
6707.56
6560.54
6413.51
6266.48
6119.44
5972.39
5825.33
5678.26
5531.19
5384.11
5237.02
5089.93
4942.83
4795.73
4648.63
4501.52
4354.42
4207.32
4060.23
3913.15
3766.07
3619.01
3471.97
3324.95
3177.95
3030.97
2884.03
2737.13
2590.26
2443.43
2296.64
2149.9
2003.21
1856.57
1709.98
1563.45
1416.97
1270.54
1124.16
977.832
831.554
685.318
539.135
392.976
246.766
100.941
13.7764
-0.298086
-0.489804
-0.663785
-0.850576
-1.02756
-1.2106
-1.38945
-1.57066
-1.75005
14648.1
14501
14353.8
14206.7
14059.5
13912.4
13765.3
13618.2
13471.1
13324
13176.9
13029.8
12882.7
12735.7
12588.6
12441.5
12294.5
12147.4
12000.4
11853.3
11706.3
11559.3
11412.3
11265.2
11118.2
10971.2
10824.2
10677.2
10530.3
10383.3
10236.3
10089.3
9942.34
9795.38
9648.41
9501.45
9354.49
9207.54
9060.59
8913.63
8766.68
8619.74
8472.79
8325.84
8178.89
8031.94
7884.98
7738.03
7591.07
7444.11
7297.14
7150.17
7003.19
6856.2
6709.21
6562.21
6415.2
6268.18
6121.15
5974.12
5827.07
5680.02
5532.95
5385.88
5238.8
5091.71
4944.61
4797.51
4650.41
4503.31
4356.21
4209.11
4062.01
3914.93
3767.86
3620.81
3473.77
3326.75
3179.76
3032.8
2885.88
2738.99
2592.15
2445.36
2298.61
2151.92
2005.28
1858.71
1712.19
1565.74
1419.35
1273.02
1126.75
980.544
834.394
688.295
542.255
396.244
250.185
104.531
15.6314
-0.298537
-0.488948
-0.664058
-0.849842
-1.02746
-1.21011
-1.38919
-1.57028
-1.74978
14648.9
14501.7
14354.6
14207.4
14060.3
13913.2
13766.1
13619
13471.9
13324.8
13177.7
13030.6
12883.6
12736.5
12589.4
12442.4
12295.3
12148.3
12001.3
11854.2
11707.2
11560.2
11413.2
11266.2
11119.2
10972.2
10825.2
10678.3
10531.3
10384.3
10237.4
10090.4
9943.47
9796.53
9649.59
9502.65
9355.71
9208.78
9061.85
8914.93
8768
8621.08
8474.16
8327.23
8180.31
8033.38
7886.46
7739.53
7592.59
7445.65
7298.71
7151.76
7004.8
6857.84
6710.86
6563.88
6416.89
6269.89
6122.88
5975.85
5828.82
5681.77
5534.72
5387.65
5240.58
5093.49
4946.4
4799.3
4652.2
4505.09
4357.99
4210.89
4063.79
3916.7
3769.63
3622.58
3475.54
3328.53
3181.55
3034.6
2887.69
2740.82
2594
2447.24
2300.53
2153.89
2007.3
1860.79
1714.34
1567.97
1421.67
1275.44
1129.28
983.199
837.182
691.224
545.336
399.482
253.582
108.115
17.4991
-0.299308
-0.488921
-0.664676
-0.849614
-1.02768
-1.20992
-1.38916
-1.57006
-1.74962
14649.6
14502.5
14355.3
14208.2
14061.1
13914
13766.9
13619.8
13472.7
13325.6
13178.5
13031.4
12884.4
12737.3
12590.3
12443.2
12296.2
12149.2
12002.1
11855.1
11708.1
11561.1
11414.1
11267.2
11120.2
10973.2
10826.2
10679.3
10532.3
10385.4
10238.5
10091.5
9944.6
9797.67
9650.76
9503.84
9356.93
9210.02
9063.12
8916.22
8769.32
8622.42
8475.53
8328.63
8181.73
8034.83
7887.93
7741.03
7594.12
7447.2
7300.28
7153.36
7006.42
6859.48
6712.53
6565.57
6418.59
6271.61
6124.61
5977.6
5830.58
5683.54
5536.5
5389.44
5242.37
5095.28
4948.19
4801.09
4653.99
4506.88
4359.77
4212.66
4065.56
3918.46
3771.39
3624.33
3477.29
3330.28
3183.29
3036.35
2889.45
2742.6
2595.8
2449.06
2302.39
2155.79
2009.25
1862.8
1716.42
1570.13
1423.92
1277.79
1131.75
985.786
839.907
694.097
548.37
402.686
256.954
111.691
19.3759
-0.300975
-0.489151
-0.665637
-0.849799
-1.02816
-1.21
-1.38933
-1.57
-1.74956
14650.4
14503.2
14356.1
14209
14061.8
13914.7
13767.6
13620.5
13473.4
13326.4
13179.3
13032.2
12885.2
12738.1
12591.1
12444.1
12297
12150
12003
11856
11709
11562
11415.1
11268.1
11121.1
10974.2
10827.2
10680.3
10533.4
10386.4
10239.5
10092.6
9945.71
9798.81
9651.92
9505.03
9358.14
9211.26
9064.38
8917.51
8770.64
8623.77
8476.89
8330.02
8183.15
8036.28
7889.41
7742.53
7595.64
7448.76
7301.86
7154.96
7008.05
6861.13
6714.2
6567.26
6420.3
6273.34
6126.36
5979.36
5832.35
5685.33
5538.29
5391.23
5244.16
5097.08
4949.99
4802.89
4655.78
4508.66
4361.54
4214.43
4067.31
3920.21
3773.12
3626.05
3479.01
3331.99
3185.01
3038.06
2891.17
2744.32
2597.54
2450.83
2304.18
2157.61
2011.13
1864.73
1718.42
1572.2
1426.08
1280.05
1134.13
988.294
842.558
696.905
551.347
405.845
260.294
115.251
21.2604
-0.302994
-0.490067
-0.666862
-0.850368
-1.02888
-1.21032
-1.38965
-1.57006
-1.74957
14651.1
14504
14356.8
14209.7
14062.6
13915.5
13768.4
13621.3
13474.2
13327.1
13180.1
13033
12886
12738.9
12591.9
12444.9
12297.9
12150.9
12003.9
11856.9
11709.9
11562.9
11416
11269
11122.1
10975.2
10828.2
10681.3
10534.4
10387.5
10240.6
10093.7
9946.83
9799.95
9653.08
9506.21
9359.35
9212.5
9065.64
8918.8
8771.95
8625.11
8478.26
8331.42
8184.58
8037.73
7890.88
7744.03
7597.18
7450.32
7303.45
7156.57
7009.69
6862.79
6715.88
6568.96
6422.03
6275.08
6128.12
5981.13
5834.14
5687.12
5540.09
5393.04
5245.97
5098.89
4951.8
4804.69
4657.57
4510.45
4363.32
4216.19
4069.06
3921.94
3774.84
3627.76
3480.7
3333.67
3186.67
3039.73
2892.83
2745.99
2599.22
2452.51
2305.89
2159.36
2012.91
1866.56
1720.32
1574.18
1428.14
1282.22
1136.41
990.71
845.122
699.632
554.255
408.947
263.592
118.784
23.1499
-0.305332
-0.491821
-0.6681
-0.851294
-1.0298
-1.21085
-1.39012
-1.57023
-1.74964
14651.9
14504.7
14357.6
14210.4
14063.3
13916.2
13769.1
13622
13475
13327.9
13180.8
13033.8
12886.7
12739.7
12592.7
12445.7
12298.7
12151.7
12004.7
11857.7
11710.8
11563.8
11416.9
11270
11123
10976.1
10829.2
10682.3
10535.4
10388.5
10241.7
10094.8
9947.93
9801.08
9654.23
9507.39
9360.56
9213.73
9066.9
8920.08
8773.26
8626.44
8479.63
8332.81
8186
8039.18
7892.37
7745.54
7598.72
7451.88
7305.04
7158.19
7011.33
6864.46
6717.58
6570.68
6423.77
6276.84
6129.89
5982.92
5835.94
5688.93
5541.91
5394.86
5247.8
5100.72
4953.62
4806.5
4659.38
4512.24
4365.09
4217.95
4070.8
3923.66
3776.54
3629.43
3482.35
3335.31
3188.3
3041.34
2894.43
2747.59
2600.82
2454.12
2307.52
2161.01
2014.6
1868.3
1722.12
1576.05
1430.1
1284.27
1138.58
993.018
847.583
702.264
557.077
411.979
266.835
122.277
25.0401
-0.308025
-0.493761
-0.669863
-0.852544
-1.03092
-1.21157
-1.39071
-1.5705
-1.74976
14652.6
14505.4
14358.3
14211.2
14064.1
13916.9
13769.9
13622.8
13475.7
13328.6
13181.6
13034.6
12887.5
12740.5
12593.5
12446.5
12299.5
12152.5
12005.6
11858.6
11711.7
11564.7
11417.8
11270.9
11124
10977.1
10830.2
10683.3
10536.4
10389.6
10242.7
10095.9
9949.03
9802.2
9655.38
9508.56
9361.75
9214.95
9068.15
8921.36
8774.57
8627.78
8480.99
8334.21
8187.42
8040.64
7893.85
7747.06
7600.26
7453.46
7306.64
7159.82
7012.99
6866.15
6719.29
6572.41
6425.52
6278.61
6131.68
5984.73
5837.76
5690.77
5543.75
5396.71
5249.64
5102.56
4955.45
4808.33
4661.19
4514.03
4366.87
4219.7
4072.53
3925.37
3778.22
3631.09
3483.98
3336.91
3189.87
3042.89
2895.97
2749.12
2602.34
2455.65
2309.05
2162.56
2016.18
1869.92
1723.79
1577.79
1431.93
1286.2
1140.63
995.202
849.924
704.782
559.796
414.921
270.007
125.71
26.9239
-0.31103
-0.496059
-0.671852
-0.854138
-1.03221
-1.21245
-1.3914
-1.57085
-1.74991
14653.3
14506.2
14359
14211.9
14064.8
13917.7
13770.6
13623.5
13476.4
13329.4
13182.3
13035.3
12888.3
12741.3
12594.3
12447.3
12300.3
12153.3
12006.4
11859.4
11712.5
11565.6
11418.7
11271.8
11124.9
10978
10831.1
10684.3
10537.4
10390.6
10243.8
10096.9
9950.12
9803.32
9656.52
9509.73
9362.94
9216.17
9069.4
8922.63
8775.87
8629.11
8482.36
8335.6
8188.85
8042.09
7895.34
7748.57
7601.81
7455.04
7308.25
7161.46
7014.66
6867.84
6721.01
6574.16
6427.29
6280.4
6133.49
5986.56
5839.6
5692.62
5545.61
5398.57
5251.51
5104.42
4957.31
4810.17
4663.01
4515.84
4368.65
4221.46
4074.26
3927.07
3779.88
3632.71
3485.57
3338.46
3191.4
3044.39
2897.44
2750.57
2603.77
2457.08
2310.48
2164
2017.64
1871.42
1725.33
1579.4
1433.61
1287.99
1142.53
997.241
852.125
707.164
562.389
417.751
273.086
129.059
28.7918
-0.314266
-0.49872
-0.673828
-0.856171
-1.03369
-1.21347
-1.39217
-1.57126
-1.75008
14654
14506.9
14359.7
14212.6
14065.5
13918.4
13771.3
13624.2
13477.2
13330.1
13183.1
13036.1
12889
12742
12595.1
12448.1
12301.1
12154.2
12007.2
11860.3
11713.4
11566.5
11419.6
11272.7
11125.8
10978.9
10832.1
10685.2
10538.4
10391.6
10244.8
10098
9951.2
9804.42
9657.65
9510.88
9364.13
9217.38
9070.64
8923.9
8777.17
8630.44
8483.72
8337
8190.27
8043.55
7896.83
7750.1
7603.36
7456.62
7309.87
7163.11
7016.34
6869.55
6722.75
6575.93
6429.08
6282.22
6135.33
5988.41
5841.47
5694.5
5547.49
5400.46
5253.4
5106.3
4959.18
4812.03
4664.85
4517.66
4370.44
4223.22
4075.98
3928.75
3781.52
3634.31
3487.13
3339.98
3192.87
3045.82
2898.84
2751.93
2605.11
2458.4
2311.8
2165.32
2018.97
1872.77
1726.73
1580.85
1435.14
1289.61
1144.26
999.114
854.161
709.385
564.83
420.441
276.046
132.294
30.631
-0.318152
-0.501611
-0.676831
-0.857801
-1.03533
-1.21463
-1.39304
-1.57172
-1.75026
14654.7
14507.6
14360.4
14213.3
14066.2
13919.1
13772
13624.9
13477.9
13330.8
13183.8
13036.8
12889.8
12742.8
12595.8
12448.9
12301.9
12155
12008
11861.1
11714.2
11567.3
11420.4
11273.6
11126.7
10979.9
10833
10686.2
10539.4
10392.6
10245.8
10099
9952.27
9805.52
9658.77
9512.03
9365.31
9218.59
9071.87
8925.17
8778.47
8631.77
8485.08
8338.39
8191.7
8045.01
7898.32
7751.62
7604.92
7458.22
7311.5
7164.77
7018.03
6871.28
6724.51
6577.71
6430.9
6284.06
6137.19
5990.29
5843.36
5696.4
5549.41
5402.38
5255.31
5108.21
4961.08
4813.91
4666.72
4519.49
4372.25
4224.98
4077.71
3930.43
3783.15
3635.89
3488.65
3341.44
3194.28
3047.18
2900.15
2753.21
2606.35
2459.61
2312.99
2166.5
2020.16
1873.98
1727.96
1582.13
1436.49
1291.04
1145.81
1000.79
856.007
711.414
567.091
422.961
278.856
135.377
32.4257
-0.32187
-0.504657
-0.679633
-0.859816
-1.03716
-1.21592
-1.39398
-1.57226
-1.75044
14655.4
14508.2
14361.1
14214
14066.9
13919.8
13772.7
13625.6
13478.6
13331.6
13184.5
13037.5
12890.5
12743.5
12596.6
12449.6
12302.7
12155.7
12008.8
11861.9
11715
11568.1
11421.3
11274.4
11127.6
10980.8
10834
10687.2
10540.4
10393.6
10246.8
10100.1
9953.33
9806.6
9659.88
9513.17
9366.47
9219.78
9073.1
8926.42
8779.76
8633.09
8486.43
8339.78
8193.12
8046.47
7899.81
7753.15
7606.49
7459.82
7313.14
7166.45
7019.74
6873.02
6726.28
6579.52
6432.73
6285.92
6139.07
5992.2
5845.29
5698.34
5551.36
5404.33
5257.26
5110.16
4963.01
4815.83
4668.6
4521.35
4374.07
4226.76
4079.43
3932.1
3784.76
3637.44
3490.14
3342.87
3195.64
3048.48
2901.39
2754.38
2607.48
2460.7
2314.04
2167.53
2021.18
1875.01
1729.01
1583.22
1437.64
1292.28
1147.15
1002.26
857.625
713.218
569.143
425.273
281.48
138.266
34.156
-0.325815
-0.50796
-0.682496
-0.862038
-1.03908
-1.21729
-1.39498
-1.57284
-1.75063
14656
14508.9
14361.8
14214.6
14067.5
13920.4
13773.4
13626.3
13479.3
13332.2
13185.2
13038.2
12891.2
12744.3
12597.3
12450.4
12303.4
12156.5
12009.6
11862.7
11715.8
11569
11422.1
11275.3
11128.5
10981.7
10834.9
10688.1
10541.3
10394.6
10247.8
10101.1
9954.38
9807.68
9660.98
9514.3
9367.63
9220.97
9074.32
8927.67
8781.04
8634.41
8487.78
8341.16
8194.54
8047.93
7901.31
7754.69
7608.06
7461.43
7314.79
7168.13
7021.47
6874.78
6728.08
6581.35
6434.59
6287.81
6140.99
5994.14
5847.25
5700.32
5553.34
5406.32
5259.25
5112.14
4964.98
4817.77
4670.52
4523.23
4375.91
4228.55
4081.17
3933.77
3786.37
3638.97
3491.59
3344.24
3196.94
3049.7
2902.54
2755.46
2608.5
2461.66
2314.96
2168.41
2022.04
1875.85
1729.87
1584.1
1438.57
1293.28
1148.24
1003.47
858.991
714.789
570.914
427.33
283.874
140.917
35.7965
-0.329936
-0.511476
-0.685568
-0.864403
-1.04103
-1.2187
-1.39597
-1.57342
-1.75084
14656.7
14509.6
14362.4
14215.3
14068.2
13921.1
13774
13627
13480
13332.9
13185.9
13038.9
12891.9
12745
12598
12451.1
12304.2
12157.3
12010.4
11863.5
11716.6
11569.8
11423
11276.1
11129.3
10982.5
10835.8
10689
10542.3
10395.5
10248.8
10102.1
9955.42
9808.74
9662.07
9515.42
9368.78
9222.15
9075.53
8928.92
8782.31
8635.72
8489.13
8342.55
8195.97
8049.39
7902.81
7756.23
7609.64
7463.05
7316.45
7169.83
7023.21
6876.56
6729.89
6583.2
6436.48
6289.73
6142.94
5996.12
5849.25
5702.33
5555.37
5408.36
5261.29
5114.17
4966.99
4819.77
4672.48
4525.15
4377.78
4230.36
4082.91
3935.44
3787.96
3640.48
3493.01
3345.57
3198.18
3050.85
2903.6
2756.44
2609.39
2462.48
2315.71
2169.12
2022.71
1876.5
1730.5
1584.75
1439.25
1294.01
1149.06
1004.4
860.06
716.042
572.384
429.057
286.043
143.324
37.3186
-0.334536
-0.51439
-0.689132
-0.866759
-1.04297
-1.22009
-1.39695
-1.574
-1.75105
14657.3
14510.2
14363.1
14215.9
14068.8
13921.8
13774.7
13627.6
13480.6
13333.6
13186.6
13039.6
12892.6
12745.7
12598.7
12451.8
12304.9
12158
12011.1
11864.3
11717.4
11570.6
11423.8
11277
11130.2
10983.4
10836.7
10689.9
10543.2
10396.5
10249.8
10103.1
9956.44
9809.79
9663.15
9516.53
9369.92
9223.32
9076.73
8930.15
8783.58
8637.02
8490.47
8343.93
8197.38
8050.84
7904.31
7757.77
7611.22
7464.67
7318.12
7171.55
7024.96
6878.36
6731.73
6585.08
6438.4
6291.68
6144.93
5998.13
5851.29
5704.4
5557.45
5410.44
5263.38
5116.25
4969.06
4821.81
4674.49
4527.11
4379.68
4232.2
4084.68
3937.13
3789.56
3641.98
3494.4
3346.86
3199.36
3051.92
2904.56
2757.3
2610.16
2463.16
2316.31
2169.64
2023.17
1876.92
1730.9
1585.14
1439.66
1294.46
1149.57
1005
860.79
716.941
573.504
430.46
287.874
145.729
38.6748
-0.340465
-0.517603
-0.692387
-0.86906
-1.04482
-1.22142
-1.39787
-1.57456
-1.75128
14658
14510.8
14363.7
14216.6
14069.5
13922.4
13775.3
13628.3
13481.3
13334.2
13187.3
13040.3
12893.3
12746.4
12599.4
12452.5
12305.6
12158.7
12011.9
11865
11718.2
11571.4
11424.6
11277.8
11131
10984.3
10837.5
10690.8
10544.1
10397.4
10250.7
10104.1
9957.45
9810.82
9664.21
9517.62
9371.04
9224.47
9077.92
8931.37
8784.84
8638.32
8491.81
8345.3
8198.8
8052.3
7905.81
7759.31
7612.81
7466.31
7319.8
7173.27
7026.73
6880.18
6733.6
6586.99
6440.35
6293.67
6146.96
6000.19
5853.38
5706.51
5559.58
5412.59
5265.53
5118.39
4971.19
4823.91
4676.55
4529.13
4381.64
4234.08
4086.48
3938.83
3791.15
3643.46
3495.77
3348.1
3200.47
3052.9
2905.42
2758.04
2610.78
2463.67
2316.72
2169.96
2023.42
1877.1
1731.05
1585.26
1439.77
1294.59
1149.74
1005.24
861.136
717.435
574.199
431.414
289.188
147.426
39.8123
-0.346206
-0.520942
-0.695416
-0.871211
-1.04651
-1.22262
-1.39871
-1.57507
-1.7515
14658.6
14511.4
14364.3
14217.2
14070.1
13923
13775.9
13628.9
13481.9
13334.9
13187.9
13040.9
12894
12747
12600.1
12453.2
12306.3
12159.4
12012.6
11865.7
11718.9
11572.1
11425.3
11278.6
11131.8
10985.1
10838.4
10691.7
10545
10398.3
10251.7
10105.1
9958.44
9811.84
9665.26
9518.7
9372.15
9225.61
9079.09
8932.58
8786.09
8639.61
8493.13
8346.67
8200.21
8053.75
7907.3
7760.86
7614.4
7467.95
7321.49
7175.01
7028.52
6882.02
6735.49
6588.93
6442.33
6295.71
6149.03
6002.31
5855.53
5708.69
5561.78
5414.8
5267.75
5120.61
4973.38
4826.08
4678.68
4531.2
4383.65
4236.01
4088.31
3940.56
3792.76
3644.94
3497.11
3349.29
3201.52
3053.8
2906.16
2758.64
2611.25
2464.01
2316.95
2170.08
2023.44
1877.04
1730.92
1585.09
1439.57
1294.38
1149.54
1005.09
861.056
717.466
574.398
431.833
289.925
148.489
40.6682
-0.351597
-0.524096
-0.698126
-0.873102
-1.04795
-1.22363
-1.3994
-1.57551
-1.75173
14659.2
14512
14364.9
14217.8
14070.7
13923.6
13776.6
13629.5
13482.5
13335.5
13188.5
13041.6
12894.6
12747.7
12600.8
12453.9
12307
12160.1
12013.3
11866.5
11719.7
11572.9
11426.1
11279.3
11132.6
10985.9
10839.2
10692.5
10545.9
10399.2
10252.6
10106
9959.41
9812.84
9666.29
9519.76
9373.24
9226.74
9080.25
8933.78
8787.32
8640.88
8494.45
8348.02
8201.61
8055.2
7908.8
7762.4
7616
7469.6
7323.19
7176.77
7030.33
6883.88
6737.4
6590.9
6444.36
6297.78
6151.16
6004.48
5857.74
5710.93
5564.05
5417.09
5270.04
5122.9
4975.67
4828.33
4680.89
4533.36
4385.73
4238
4090.2
3942.32
3794.39
3646.42
3498.43
3350.45
3202.5
3054.6
2906.8
2759.11
2611.56
2464.17
2316.96
2169.97
2023.21
1876.72
1730.51
1584.61
1439.03
1293.8
1148.95
1004.5
860.504
716.984
574.034
431.638
290.001
148.844
41.1678
-0.356418
-0.526872
-0.700363
-0.874612
-1.04905
-1.22437
-1.39991
-1.57585
-1.75194
14659.7
14512.6
14365.5
14218.4
14071.3
13924.2
13777.1
13630.1
13483.1
13336.1
13189.1
13042.2
12895.2
12748.3
12601.4
12454.5
12307.7
12160.8
12014
11867.2
11720.4
11573.6
11426.8
11280.1
11133.4
10986.7
10840
10693.4
10546.7
10400.1
10253.5
10106.9
9960.37
9813.83
9667.31
9520.8
9374.32
9227.85
9081.4
8934.97
8788.55
8642.14
8495.75
8349.37
8203.01
8056.65
7910.29
7763.94
7617.6
7471.25
7324.89
7178.53
7032.16
6885.76
6739.35
6592.91
6446.42
6299.9
6153.33
6006.7
5860
5713.24
5566.39
5419.46
5272.43
5125.29
4978.04
4830.68
4683.2
4535.6
4387.89
4240.07
4092.15
3944.14
3796.05
3647.91
3499.74
3351.57
3203.42
3055.32
2907.32
2759.44
2611.7
2464.13
2316.76
2169.62
2022.73
1876.12
1729.81
1583.81
1438.15
1292.85
1147.94
1003.45
859.443
715.935
573.039
430.743
289.312
148.37
41.2203
-0.360346
-0.528936
-0.702041
-0.875601
-1.0497
-1.22475
-1.40017
-1.57606
-1.75214
14660.3
14513.2
14366
14218.9
14071.8
13924.8
13777.7
13630.7
13483.7
13336.7
13189.7
13042.8
12895.8
12748.9
12602
12455.2
12308.3
12161.5
12014.6
11867.8
11721.1
11574.3
11427.6
11280.8
11134.1
10987.5
10840.8
10694.2
10547.6
10401
10254.4
10107.8
9961.3
9814.79
9668.3
9521.83
9375.37
9228.94
9082.53
8936.13
8789.75
8643.39
8497.04
8350.71
8204.39
8058.08
7911.78
7765.48
7619.19
7472.9
7326.61
7180.31
7034
6887.67
6741.32
6594.94
6448.52
6302.06
6155.55
6008.98
5862.34
5715.62
5568.82
5421.92
5274.9
5127.78
4980.52
4833.14
4685.62
4537.96
4390.17
4242.24
4094.18
3946.02
3797.76
3649.42
3501.04
3352.65
3204.27
3055.95
2907.72
2759.61
2611.65
2463.88
2316.33
2169.02
2021.98
1875.23
1728.79
1582.66
1436.9
1291.5
1146.5
1001.92
857.838
714.272
571.35
429.063
287.735
146.92
40.7191
-0.363024
-0.530115
-0.702935
-0.875905
-1.04977
-1.22469
-1.40011
-1.57609
-1.7523
14660.8
14513.7
14366.6
14219.5
14072.4
13925.3
13778.3
13631.2
13484.2
13337.3
13190.3
13043.3
12896.4
12749.5
12602.6
12455.8
12308.9
12162.1
12015.3
11868.5
11721.7
11575
11428.3
11281.6
11134.9
10988.2
10841.6
10695
10548.4
10401.8
10255.3
10108.7
9962.22
9815.73
9669.27
9522.83
9376.41
9230.01
9083.64
8937.28
8790.94
8644.62
8498.32
8352.03
8205.76
8059.51
7913.26
7767.02
7620.79
7474.56
7328.33
7182.1
7035.86
6889.59
6743.31
6597
6450.66
6304.27
6157.83
6011.33
5864.76
5718.1
5571.34
5424.48
5277.5
5130.39
4983.13
4835.73
4688.17
4540.45
4392.56
4244.52
4096.32
3947.99
3799.53
3650.98
3502.35
3353.7
3205.06
3056.48
2907.98
2759.61
2611.41
2463.42
2315.65
2168.15
2020.94
1874.03
1727.43
1581.18
1435.27
1289.74
1144.6
999.888
855.664
711.959
568.909
426.513
285.145
144.331
39.5432
-0.363889
-0.530222
-0.702706
-0.875288
-1.04908
-1.22404
-1.39966
-1.5759
-1.75242
14661.4
14514.2
14367.1
14220
14072.9
13925.8
13778.8
13631.8
13484.8
13337.8
13190.8
13043.9
12897
12750.1
12603.2
12456.4
12309.5
12162.7
12015.9
11869.1
11722.4
11575.7
11428.9
11282.3
11135.6
10989
10842.3
10695.7
10549.2
10402.6
10256.1
10109.6
9963.11
9816.65
9670.22
9523.81
9377.43
9231.06
9084.72
8938.41
8792.11
8645.83
8499.58
8353.34
8207.12
8060.92
7914.73
7768.55
7622.38
7476.22
7330.06
7183.89
7037.72
6891.54
6745.33
6599.1
6452.84
6306.53
6160.17
6013.75
5867.25
5720.66
5573.97
5427.16
5280.22
5133.14
4985.89
4838.46
4690.87
4543.09
4395.11
4246.94
4098.59
3950.06
3801.38
3652.58
3503.69
3354.74
3205.8
3056.9
2908.1
2759.44
2610.96
2462.71
2314.71
2166.99
2019.59
1872.5
1725.74
1579.33
1433.27
1287.56
1142.25
997.346
852.911
708.973
565.676
423.023
281.421
140.429
37.5575
-0.36227
-0.529129
-0.701123
-0.873572
-1.04751
-1.22274
-1.39875
-1.57545
-1.75247
14661.9
14514.7
14367.6
14220.5
14073.4
13926.3
13779.3
13632.3
13485.3
13338.3
13191.4
13044.4
12897.5
12750.6
12603.8
12456.9
12310.1
12163.3
12016.5
11869.8
11723
11576.3
11429.6
11282.9
11136.3
10989.7
10843.1
10696.5
10549.9
10403.4
10256.9
10110.4
9963.98
9817.55
9671.15
9524.77
9378.42
9232.09
9085.79
8939.51
8793.26
8647.02
8500.82
8354.63
8208.46
8062.31
7916.18
7770.07
7623.97
7477.87
7331.78
7185.69
7039.6
6893.49
6747.37
6601.23
6455.06
6308.84
6162.57
6016.23
5869.82
5723.32
5576.7
5429.96
5283.08
5136.03
4988.8
4841.38
4693.75
4545.91
4397.84
4249.54
4101.01
3952.28
3803.35
3654.26
3505.05
3355.76
3206.47
3057.22
2908.07
2759.07
2610.28
2461.73
2313.47
2165.52
2017.91
1870.63
1723.7
1577.11
1430.88
1284.99
1139.46
994.307
849.586
705.314
561.631
418.545
276.467
135.044
34.631
-0.357339
-0.526626
-0.697887
-0.870529
-1.04488
-1.22063
-1.39728
-1.57468
-1.75242
14662.3
14515.2
14368.1
14221
14073.9
13926.8
13779.8
13632.8
13485.8
13338.8
13191.9
13045
12898.1
12751.2
12604.3
12457.5
12310.7
12163.9
12017.1
11870.3
11723.6
11576.9
11430.2
11283.6
11137
10990.4
10843.8
10697.2
10550.7
10404.2
10257.7
10111.2
9964.82
9818.42
9672.05
9525.7
9379.38
9233.09
9086.83
8940.59
8794.38
8648.19
8502.03
8355.89
8209.78
8063.69
7917.62
7771.58
7625.54
7479.52
7333.5
7187.49
7041.48
6895.46
6749.44
6603.39
6457.32
6311.2
6165.03
6018.8
5872.48
5726.08
5579.55
5432.9
5286.09
5139.1
4991.9
4844.48
4696.84
4548.95
4400.78
4252.34
4103.63
3954.66
3805.45
3656.04
3506.46
3356.79
3207.09
3057.43
2907.87
2758.48
2609.32
2460.45
2311.91
2163.71
2015.87
1868.4
1721.29
1574.53
1428.11
1282.01
1136.24
990.8
845.723
701.016
556.801
413.079
270.237
128.023
30.6538
-0.348346
-0.522902
-0.692795
-0.866041
-1.04108
-1.21767
-1.39523
-1.57358
-1.75227
14662.8
14515.7
14368.5
14221.4
14074.4
13927.3
13780.3
13633.3
13486.3
13339.3
13192.4
13045.5
12898.6
12751.7
12604.8
12458
12311.2
12164.4
12017.7
11870.9
11724.2
11577.5
11430.9
11284.2
11137.6
10991
10844.4
10697.9
10551.4
10404.9
10258.5
10112
9965.63
9819.26
9672.92
9526.6
9380.32
9234.06
9087.84
8941.64
8795.47
8649.33
8503.22
8357.14
8211.08
8065.05
7919.05
7773.06
7627.09
7481.15
7335.21
7189.29
7043.37
6897.45
6751.52
6605.58
6459.61
6313.6
6167.55
6021.44
5875.24
5728.95
5582.53
5435.98
5289.26
5142.35
4995.21
4847.82
4700.17
4552.23
4403.98
4255.4
4106.49
3957.26
3807.74
3657.95
3507.95
3357.82
3207.65
3057.5
2907.47
2757.63
2608.07
2458.83
2309.98
2161.52
2013.46
1865.79
1718.51
1571.57
1424.97
1278.67
1132.64
986.874
841.388
696.154
551.264
406.69
262.776
119.279
25.5794
-0.334222
-0.519113
-0.684578
-0.859925
-1.0359
-1.21371
-1.39251
-1.57208
-1.75196
14663.2
14516.1
14369
14221.9
14074.8
13927.7
13780.7
13633.7
13486.7
13339.8
13192.9
13045.9
12899
12752.2
12605.3
12458.5
12311.7
12164.9
12018.2
11871.5
11724.8
11578.1
11431.4
11284.8
11138.2
10991.6
10845.1
10698.6
10552.1
10405.6
10259.2
10112.8
9966.42
9820.07
9673.76
9527.48
9381.23
9235.01
9088.82
8942.66
8796.54
8650.44
8504.38
8358.35
8212.35
8066.38
7920.44
7774.52
7628.63
7482.76
7336.91
7191.08
7045.25
6899.43
6753.61
6607.78
6461.93
6316.05
6170.13
6024.14
5878.09
5731.93
5585.65
5439.22
5292.62
5145.81
4998.74
4851.4
4703.78
4555.81
4407.48
4258.76
4109.64
3960.13
3810.25
3660.03
3509.54
3358.88
3208.14
3057.42
2906.83
2756.48
2606.45
2456.81
2307.62
2158.89
2010.62
1862.78
1715.33
1568.25
1421.49
1274.98
1128.72
982.598
836.676
690.847
545.164
399.533
254.287
108.804
19.4658
-0.313758
-0.51654
-0.672284
-0.852552
-1.02924
-1.20878
-1.38918
-1.57024
-1.75154
14663.7
14516.5
14369.4
14222.3
14075.2
13928.2
13781.2
13634.2
13487.2
13340.2
13193.3
13046.4
12899.5
12752.6
12605.8
12459
12312.2