/*--------------------------------*- C++ -*----------------------------------*\
| =========                 |                                                 |
| \\      /  F ield         | OpenFOAM: The Open Source CFD Toolbox           |
|  \\    /   O peration     | Version:  v2106                                 |
|   \\  /    A nd           | Website:  www.openfoam.com                      |
|    \\/     M anipulation  |                                                 |
\*---------------------------------------------------------------------------*/
FoamFile
{
    version     2.0;
    format      ascii;
    arch        "LSB;label=32;scalar=64";
    class       volScalarField;
    location    "0.7";
    object      p_rgh;
}
// * * * * * * * * * * * * * * * * * * * * * * * * * * * * * * * * * * * * * //

dimensions      [1 -1 -2 0 0 0 0];

internalField   nonuniform List<scalar> 
29678
(
0.398353
0.399017
0.400237
0.401702
0.403346
0.405195
0.407309
0.409736
0.412502
0.415619
0.41909
0.422916
0.427094
0.431622
0.436497
0.441717
0.447276
0.453171
0.459396
0.465945
0.47281
0.47998
0.487443
0.495185
0.503192
0.511465
0.520009
0.528867
0.537953
0.546999
0.556273
0.566086
0.576242
0.586663
0.597313
0.608169
0.619215
0.630437
0.641836
0.653454
0.665235
0.67695
0.688503
0.699947
0.711289
0.72251
0.733584
0.744479
0.755162
0.765597
0.775752
0.785591
0.795083
0.804197
0.812906
0.821184
0.829015
0.836387
0.843297
0.849763
0.855851
0.861708
0.867206
0.872089
0.876403
0.880264
0.883753
0.886921
0.889748
0.89208
0.894722
0.898199
0.902316
0.907253
0.91315
0.920175
0.928505
0.938327
0.94984
0.963255
0.978721
0.996558
1.01685
1.03994
1.06593
1.09496
1.1271
1.16234
1.20062
1.2419
1.28608
1.33305
1.38266
1.43456
1.48804
1.54009
1.5885
1.66047
1.68227
1.75523
1.81398
-0.0172609
-0.0727355
-0.0316012
-0.0457651
-0.028877
-0.0294026
-0.0205231
-0.0166366
-0.00787517
1.19248
1.19332
1.19487
1.19716
1.20056
1.20521
1.21113
1.21822
1.22643
1.23573
1.24609
1.25751
1.26998
1.28349
1.29804
1.31362
1.33021
1.34781
1.36641
1.38598
1.4065
1.42794
1.45027
1.47343
1.49737
1.52205
1.54744
1.57394
1.60175
1.63056
1.66024
1.6907
1.72186
1.75366
1.78606
1.81902
1.85247
1.88639
1.92073
1.95552
1.99064
2.02569
2.0605
2.0951
2.12943
2.16344
2.19702
2.23009
2.26254
2.29428
2.3252
2.3552
2.38419
2.41208
2.43879
2.46424
2.4884
2.51121
2.53267
2.55282
2.57175
2.58973
2.60661
2.62207
2.63628
2.64953
2.66208
2.67422
2.68627
2.69844
2.71087
2.72347
2.73724
2.75342
2.77246
2.79478
2.8209
2.85136
2.88674
2.92763
2.97465
3.02846
3.08899
3.15785
3.23489
3.3206
3.41544
3.51967
3.63343
3.75677
3.88961
4.03174
4.18271
4.34047
4.49986
4.65459
4.80451
4.95039
5.00419
4.98845
5.1921
-0.0190698
-0.069142
-0.0281234
-0.0414149
-0.025838
-0.0264629
-0.0181147
-0.0144542
-0.00621471
1.98529
1.98644
1.98867
1.99223
1.99778
2.00555
2.01544
2.0273
2.04101
2.05651
2.07378
2.09281
2.11358
2.13609
2.16032
2.18627
2.21391
2.24323
2.27421
2.30683
2.34103
2.37679
2.41402
2.45265
2.49252
2.53368
2.5767
2.62183
2.66879
2.71753
2.76763
2.81865
2.87071
2.92379
2.97783
3.03277
3.08852
3.14498
3.20207
3.25965
3.31758
3.37558
3.43347
3.49112
3.54839
3.60514
3.6612
3.71643
3.77063
3.82365
3.87531
3.92544
3.97389
4.02049
4.06512
4.10765
4.14799
4.18607
4.22186
4.25536
4.28665
4.31587
4.34303
4.36817
4.39152
4.41341
4.43423
4.4545
4.47483
4.49607
4.5181
4.54073
4.56453
4.59122
4.62264
4.65951
4.70264
4.75295
4.81141
4.87902
4.95679
5.0457
5.14661
5.26062
5.38836
5.53058
5.68814
5.86151
6.05094
6.25654
6.4783
6.71597
6.96875
7.2325
7.50301
7.78003
8.06887
8.37562
8.61851
9.09561
9.22796
-0.0192528
-0.0571062
-0.0253169
-0.036871
-0.0229207
-0.0233088
-0.0158051
-0.0125225
-0.00619385
2.77616
2.77768
2.78063
2.7855
2.79324
2.80414
2.81804
2.83468
2.8539
2.87561
2.89979
2.92642
2.9555
2.987
3.02091
3.05723
3.09593
3.13698
3.18037
3.22604
3.27396
3.32408
3.3763
3.43052
3.48655
3.54498
3.60657
3.6707
3.73668
3.80459
3.87429
3.94559
4.01842
4.09272
4.16839
4.24533
4.3234
4.40246
4.48234
4.56287
4.64384
4.72499
4.80608
4.88691
4.96726
5.0469
5.12561
5.20314
5.27925
5.35371
5.42626
5.49667
5.5647
5.63015
5.6928
5.7525
5.80908
5.86246
5.91256
5.95938
6.00297
6.04344
6.0809
6.11556
6.14772
6.17781
6.20635
6.23399
6.26149
6.28971
6.31944
6.35173
6.38635
6.42385
6.4669
6.51748
6.57671
6.64592
6.72649
6.81984
6.92742
7.05063
7.19084
7.34934
7.52712
7.72497
7.9448
8.18702
8.45198
8.73992
9.05085
9.38445
9.73817
10.1086
10.4958
10.8986
11.3224
11.7661
12.1468
12.8807
12.9988
-0.0204649
-0.0482462
-0.0231873
-0.032634
-0.0205323
-0.0207871
-0.0139529
-0.0109101
-0.00512061
3.56449
3.56637
3.57009
3.57629
3.58621
3.60024
3.61814
3.63956
3.66429
3.69222
3.72331
3.75755
3.79492
3.83542
3.87902
3.92571
3.97547
4.02827
4.08407
4.14284
4.20452
4.26905
4.33636
4.40632
4.47904
4.5553
4.63505
4.71741
4.80221
4.88939
4.97887
5.0705
5.16417
5.25976
5.35715
5.45618
5.55668
5.65845
5.76128
5.86495
5.96917
6.07369
6.1782
6.28242
6.38606
6.48883
6.59041
6.6905
6.78877
6.88491
6.9786
7.06952
7.15737
7.24186
7.32273
7.39974
7.47271
7.54147
7.60593
7.66606
7.7219
7.77355
7.82121
7.86513
7.90573
7.94353
7.97919
8.01351
8.04741
8.08193
8.11826
8.15784
8.20172
8.2497
8.3036
8.36669
8.44074
8.52749
8.62877
8.74647
8.88248
9.0387
9.21695
9.41896
9.64604
9.89762
10.1793
10.49
10.8304
11.2007
11.6012
12.0308
12.4862
12.966
13.4718
14.0003
14.5611
15.1416
15.6561
16.5583
16.7192
-0.0205673
-0.040909
-0.0216076
-0.0290694
-0.0186468
-0.0186986
-0.0124341
-0.00960299
-0.00433731
4.3496
4.35187
4.35638
4.36392
4.37604
4.3932
4.41509
4.4413
4.47153
4.50567
4.54368
4.58552
4.6312
4.68069
4.73398
4.79106
4.85188
4.91644
4.98468
5.05657
5.13205
5.21107
5.29353
5.37935
5.46906
5.56299
5.66055
5.7612
5.86485
5.97143
6.08082
6.1929
6.30752
6.42454
6.54377
6.66504
6.78813
6.9128
7.03878
7.1658
7.29355
7.42169
7.54988
7.67777
7.80499
7.93118
8.05595
8.17891
8.29967
8.41782
8.53297
8.64471
8.75267
8.85648
8.95581
9.05036
9.13987
9.22413
9.30302
9.37645
9.44447
9.50717
9.56477
9.61762
9.66618
9.7111
9.75316
9.79329
9.83262
9.87241
9.9141
9.95942
10.0103
10.0671
10.1309
10.2048
10.2919
10.3944
10.5145
10.6547
10.8173
11.0048
11.2194
11.4636
11.7405
12.0403
12.3847
12.7636
13.179
13.6317
14.1219
14.6477
15.2066
15.7981
16.4237
17.0783
17.7727
18.4879
19.1396
20.1747
20.4043
-0.020958
-0.0356431
-0.0205876
-0.0262537
-0.0172718
-0.0170558
-0.0112707
-0.00855574
-0.00361654
5.13082
5.1335
5.1388
5.14771
5.16204
5.18232
5.20821
5.23919
5.27493
5.31529
5.3602
5.40965
5.46363
5.52212
5.58511
5.65257
5.72449
5.80081
5.88152
5.96656
6.05589
6.14943
6.24712
6.34893
6.4556
6.56708
6.68247
6.80151
6.92412
7.05021
7.17965
7.31232
7.44803
7.58661
7.72786
7.87156
8.01744
8.16523
8.31462
8.46527
8.61683
8.76892
8.92112
9.07303
9.2242
9.37419
9.52254
9.66878
9.81243
9.95299
10.09
10.2229
10.3514
10.4749
10.593
10.7053
10.8116
10.9115
11.0049
11.0917
11.1718
11.2454
11.3126
11.374
11.4299
11.4813
11.5288
11.5737
11.6173
11.661
11.7065
11.7559
11.8114
11.8748
11.9468
12.0297
12.1275
12.2434
12.3801
12.5405
12.7274
12.9437
13.1923
13.4758
13.7963
14.1542
14.5558
15.0008
15.4904
16.0252
16.6051
17.2278
17.8919
18.5977
19.3452
20.1277
20.9563
21.8068
22.6013
23.7737
24.0886
-0.0215591
-0.0320907
-0.0200885
-0.024208
-0.0163802
-0.0158395
-0.0104458
-0.00776294
-0.00305609
5.90746
5.91055
5.91667
5.92695
5.94349
5.96691
5.99679
6.03255
6.0738
6.12036
6.17219
6.22925
6.29153
6.35903
6.43172
6.50958
6.59258
6.6807
6.7739
6.87212
6.97532
7.08344
7.1964
7.31438
7.43801
7.56694
7.70024
7.83777
7.97945
8.12517
8.27482
8.42822
8.58519
8.74553
8.909
9.07534
9.24427
9.41545
9.58855
9.76317
9.9389
10.1153
10.2919
10.4683
10.6438
10.8181
10.9905
11.1605
11.3275
11.491
11.6503
11.805
11.9543
12.0979
12.2352
12.3657
12.489
12.6048
12.7129
12.813
12.9051
12.9893
13.0659
13.1353
13.198
13.2549
13.3069
13.3554
13.4018
13.4478
13.4954
13.5468
13.6046
13.6715
13.7492
13.8391
13.9451
14.0716
14.222
14.3997
14.6081
14.8505
15.1304
15.4509
15.8148
16.2245
16.6834
17.1937
17.7566
18.3733
19.0427
19.7634
20.5348
21.3574
22.2295
23.1434
24.1099
25.1007
26.0408
27.3664
27.7855
-0.0221802
-0.0299602
-0.0200039
-0.022857
-0.0159055
-0.0150041
-0.0099175
-0.00718723
-0.00264529
6.67884
6.68233
6.68928
6.70094
6.71971
6.74626
6.78014
6.82067
6.86743
6.9202
6.97894
7.04361
7.1142
7.1907
7.2731
7.36136
7.45548
7.55541
7.66112
7.77255
7.88966
8.01238
8.14063
8.27499
8.4157
8.56201
8.71326
8.86937
9.03023
9.19574
9.36575
9.54007
9.7185
9.90081
10.0867
10.276
10.4683
10.6632
10.8603
11.0593
11.2596
11.4608
11.6622
11.8635
12.064
12.263
12.46
12.6543
12.8453
13.0323
13.2146
13.3915
13.5623
13.7265
13.8835
14.0325
14.1733
14.3052
14.4281
14.5416
14.6457
14.7404
14.8259
14.9028
14.9715
15.033
15.0884
15.139
15.1866
15.2331
15.2807
15.3319
15.3894
15.4565
15.5362
15.6305
15.7422
15.8759
16.0366
16.2281
16.4546
16.72
17.0281
17.3828
17.7875
18.2455
18.76
19.334
19.9694
20.6672
21.4261
22.2462
23.1271
24.0691
25.0694
26.1195
27.23
28.3687
29.4595
30.9555
31.4967
-0.022631
-0.029104
-0.0202772
-0.0221229
-0.0158046
-0.0145167
-0.00965989
-0.00680814
-0.00237412
7.44425
7.44816
7.45593
7.46899
7.48998
7.51967
7.55755
7.60286
7.65512
7.71411
7.77975
7.85203
7.93093
8.01644
8.10855
8.20724
8.31248
8.42423
8.54247
8.66715
8.7982
8.93557
9.07927
9.2301
9.3879
9.5516
9.72089
9.89568
10.0759
10.2613
10.4519
10.6473
10.8474
11.052
11.2606
11.4731
11.689
11.908
12.1296
12.3533
12.5787
12.8051
13.032
13.2588
13.4847
13.7092
13.9315
14.1508
14.3664
14.5775
14.7834
14.9832
15.1762
15.3617
15.5388
15.707
15.8656
16.014
16.1519
16.279
16.395
16.4999
16.5941
16.6778
16.7517
16.8168
16.8742
16.9255
16.9725
17.0174
17.0626
17.1109
17.1655
17.2296
17.307
17.4014
17.5156
17.6534
17.8204
18.0219
18.2624
18.5467
18.8793
19.2647
19.7071
20.2103
20.7773
21.4132
22.1197
22.8975
23.7463
24.6667
25.6594
26.7237
27.8567
29.0489
30.311
31.6074
32.8569
34.54
35.2305
-0.0234013
-0.0290769
-0.0208944
-0.0218955
-0.016019
-0.0143304
-0.00963017
-0.00659584
-0.00221818
8.20299
8.20732
8.21592
8.23038
8.2536
8.28643
8.32832
8.3784
8.43617
8.50137
8.57393
8.65382
8.74102
8.83555
8.93737
9.04649
9.16286
9.28646
9.41726
9.5552
9.70023
9.85226
10.0117
10.1791
10.3539
10.535
10.7224
10.916
11.1157
11.3213
11.5326
11.7493
11.9714
12.1984
12.4301
12.6662
12.9062
13.1496
13.3961
13.6451
13.8961
14.1483
14.4012
14.6541
14.9062
15.1568
15.405
15.6501
15.8911
16.1272
16.3575
16.581
16.7969
17.0043
17.2024
17.3903
17.5672
17.7326
17.8859
18.0267
18.1546
18.2697
18.372
18.4619
18.5402
18.6077
18.6658
18.716
18.7604
18.8013
18.8415
18.8839
18.9322
18.9899
19.0613
19.1507
19.2624
19.4004
19.5698
19.7766
20.0266
20.3253
20.6778
21.0897
21.5658
22.1113
22.7263
23.4221
24.1978
25.0545
25.9929
27.0146
28.121
29.311
30.5816
31.9225
33.3451
34.8107
36.2288
38.1158
38.9837
-0.0250685
-0.0293076
-0.0218558
-0.0220803
-0.0165033
-0.0144111
-0.00979526
-0.00652911
-0.00215646
8.95437
8.95911
8.96856
8.98442
9.00988
9.04586
9.09174
9.1466
9.20987
9.28129
9.36075
9.44825
9.54377
9.64731
9.75885
9.8784
10.0059
10.1414
10.2848
10.436
10.595
10.7619
10.9373
11.1214
11.3129
11.5116
11.7173
11.9298
12.1491
12.375
12.6072
12.8456
13.0898
13.3397
13.5948
13.8548
14.1192
14.3876
14.6595
14.9343
15.2114
15.4901
15.7697
16.0494
16.3284
16.6059
16.8809
17.1526
17.4199
17.6818
17.9374
18.1856
18.4253
18.6556
18.8753
19.0837
19.2797
19.4626
19.6317
19.7864
19.9263
20.0513
20.1615
20.2571
20.3388
20.4076
20.4647
20.512
20.5516
20.5859
20.618
20.6512
20.6894
20.7367
20.7977
20.8774
20.9811
21.1139
21.2809
21.488
21.7422
22.0499
22.4173
22.8505
23.3553
23.9373
24.6005
25.3515
26.1933
27.1274
28.1547
29.2784
30.5001
31.8193
33.2328
34.7296
36.3223
37.9696
39.5688
41.6757
42.7532
-0.0270874
-0.0302237
-0.023081
-0.0226489
-0.0172211
-0.0147295
-0.0101233
-0.00658938
-0.002168
9.69769
9.70285
9.71314
9.73041
9.75811
9.79724
9.84712
9.90676
9.97553
10.0531
10.1395
10.2346
10.3385
10.451
10.5723
10.7023
10.8409
10.9883
11.1442
11.3088
11.4819
11.6639
11.8554
12.0559
12.2643
12.4806
12.7046
12.9363
13.1754
13.4217
13.6751
13.9354
14.2021
14.4751
14.754
15.0383
15.3277
15.6215
15.9194
16.2205
16.5244
16.8302
17.1372
17.4445
17.7513
18.0566
18.3593
18.6585
18.9531
19.242
19.5239
19.7977
20.0623
20.3164
20.5588
20.7885
21.0044
21.2055
21.3909
21.5599
21.7121
21.847
21.9647
22.0654
22.1497
22.2184
22.273
22.3154
22.3476
22.3725
22.3932
22.4135
22.4374
22.4698
22.5156
22.5805
22.6704
22.7915
22.9498
23.1517
23.4042
23.7147
24.0909
24.5398
25.068
25.6819
26.3874
27.19
28.095
29.104
30.2192
31.4448
32.7836
34.2351
35.7968
37.4569
39.2299
41.0724
42.8669
45.2093
46.5332
-0.0294259
-0.0319776
-0.0243192
-0.023575
-0.0181432
-0.0152566
-0.0105904
-0.00676123
-0.00223638
10.4322
10.4378
10.449
10.4676
10.4976
10.5399
10.5937
10.6582
10.7324
10.8162
10.9095
11.0122
11.1244
11.2459
11.3769
11.5173
11.6672
11.8264
11.995
12.1729
12.3602
12.5576
12.7652
12.9818
13.2072
13.4413
13.6838
13.9347
14.1937
14.4608
14.7357
15.018
15.3076
15.6041
15.9071
16.2163
16.531
16.8508
17.1752
17.5034
17.8347
18.1684
18.5037
18.8395
19.1749
19.5089
19.8404
20.1683
20.4913
20.8081
21.1176
21.4183
21.7088
21.9879
22.2541
22.5062
22.7429
22.963
23.1655
23.3495
23.5141
23.6591
23.7841
23.8893
23.9752
24.0427
24.0931
24.1283
24.1506
24.163
24.1687
24.1719
24.1771
24.1894
24.2146
24.2587
24.3285
24.431
24.5735
24.7631
25.0072
25.3139
25.6921
26.1499
26.6951
27.3352
28.0771
28.9262
29.8903
30.9716
32.1728
33.4998
34.9565
36.5433
38.2582
40.0888
42.0523
44.1041
46.1103
48.7021
50.3149
-0.0321183
-0.0339172
-0.0260822
-0.0248255
-0.0192641
-0.0159729
-0.0111776
-0.00702955
-0.00235142
11.1573
11.1633
11.1753
11.1954
11.2276
11.273
11.3309
11.4001
11.4799
11.5699
11.67
11.7803
11.9008
12.0313
12.1721
12.3229
12.4839
12.655
12.8363
13.0276
13.2295
13.4423
13.6656
13.8985
14.141
14.3929
14.654
14.9243
15.2035
15.4915
15.7881
16.0929
16.4056
16.726
17.0536
17.388
17.7286
18.0751
18.4266
18.7825
19.142
19.5044
19.8687
20.234
20.5991
20.9629
21.3243
21.682
22.0346
22.3808
22.7191
23.0479
23.3658
23.6713
23.9626
24.2384
24.497
24.7372
24.9576
25.1572
25.3349
25.49
25.6223
25.7316
25.8184
25.8833
25.9278
25.9536
25.9632
25.9596
25.9465
25.9281
25.9095
25.8962
25.8945
25.9113
25.9539
26.0303
26.1488
26.3181
26.546
26.8414
27.2136
27.6727
28.2276
28.8868
29.6583
30.5492
31.5662
32.716
34.0007
35.4276
37.0026
38.7267
40.5993
42.6068
44.7709
47.0461
49.2819
52.1352
54.0842
-0.0351237
-0.0362157
-0.0280704
-0.0264192
-0.0205525
-0.0168539
-0.0118666
-0.00737768
-0.00250441
11.8723
11.8787
11.8916
11.9131
11.9475
11.9961
12.0579
12.1319
12.2171
12.3133
12.4204
12.5382
12.667
12.8065
12.957
13.1182
13.2904
13.4734
13.6673
13.8723
14.0889
14.3171
14.5559
14.8052
15.0648
15.3346
15.6145
15.9043
16.204
16.5131
16.8316
17.1591
17.4954
17.84
18.1927
18.5528
18.92
19.2935
19.6729
20.0572
20.4458
20.8378
21.2321
21.6278
22.0236
22.4185
22.811
23.1998
23.5835
23.9604
24.329
24.6876
25.0344
25.3676
25.6856
25.9864
26.2685
26.53
26.7695
26.9856
27.177
27.3428
27.4824
27.5956
27.6824
27.7436
27.7803
27.7945
27.7884
27.7653
27.7291
27.6842
27.6362
27.591
27.5557
27.5378
27.5454
27.5875
27.6733
27.8128
28.0154
28.2907
28.6485
29.1001
29.6561
30.3263
31.1199
32.0466
33.1078
34.3221
35.6864
37.2112
38.9037
40.7659
42.7996
44.9891
47.3636
49.8758
52.3608
55.4844
57.8218
-0.0383612
-0.0388766
-0.0300466
-0.0284523
-0.0220295
-0.0178784
-0.0126432
-0.00778787
-0.00267866
12.5764
12.5832
12.5969
12.6199
12.6565
12.7082
12.7741
12.8528
12.9435
13.0458
13.1598
13.2852
13.4222
13.5708
13.7309
13.9026
14.0859
14.2808
14.4875
14.7064
14.9377
15.1808
15.4352
15.7009
15.9777
16.2656
16.5644
16.874
17.1942
17.5248
17.8655
18.216
18.5762
18.9455
19.3236
19.71
20.1042
20.5056
20.9135
21.3271
21.7455
22.168
22.5934
23.0206
23.4484
23.8755
24.3005
24.7219
25.1381
25.5474
25.9479
26.3379
26.7153
27.0782
27.4245
27.7522
28.0592
28.3436
28.6036
28.8374
29.0435
29.2206
29.3678
29.4847
29.571
29.6273
29.6547
29.6547
29.6299
29.5835
29.5196
29.4429
29.3594
29.2757
29.1992
29.1384
29.1024
29.1009
29.1443
29.244
29.4108
29.6555
29.9891
30.4234
30.9708
31.6424
32.4487
33.3999
34.505
35.7745
37.2127
38.8319
40.6394
42.6385
44.8358
47.2099
49.8048
52.5663
55.3209
58.7189
61.5028
-0.0422449
-0.0417671
-0.0330499
-0.0300825
-0.0236767
-0.019036
-0.0135056
-0.00825495
-0.00285121
13.269
13.2762
13.2908
13.3151
13.354
13.4089
13.4787
13.5621
13.6582
13.7668
13.8875
14.0205
14.1658
14.3233
14.4931
14.6752
14.8697
15.0765
15.2963
15.5292
15.7748
16.0327
16.3028
16.5849
16.8791
17.1852
17.503
17.8325
18.1734
18.5256
18.8888
19.2627
19.6471
20.0415
20.4456
20.8588
21.2807
21.7105
22.1477
22.5913
23.0406
23.4945
23.952
24.4119
24.8729
25.3337
25.7927
26.2482
26.6986
27.142
27.5763
27.9996
28.4096
28.8041
29.1807
29.5372
29.8712
30.1804
30.4625
30.7155
30.9375
31.1269
31.2824
31.4031
31.4885
31.539
31.5552
31.5388
31.4921
31.4184
31.3218
31.2076
31.0821
30.9523
30.8265
30.7139
30.6246
30.5694
30.5599
30.6084
30.7279
30.93
31.228
31.634
32.1618
32.8241
33.633
34.6
35.7367
37.0537
38.5613
40.27
42.1872
44.319
46.6817
49.2385
52.0664
55.0861
58.1314
61.802
65.0952
-0.045964
-0.0448133
-0.0358513
-0.0320977
-0.0255023
-0.0203258
-0.0144521
-0.00879081
-0.00302934
13.9493
13.957
13.9724
13.9982
14.0393
14.0972
14.171
14.2591
14.3607
14.4754
14.603
14.7435
14.8969
15.0634
15.2428
15.4354
15.641
15.86
16.093
16.3395
16.5992
16.872
17.1578
17.4565
17.7681
18.0924
18.4294
18.7789
19.1408
19.5148
19.9007
20.2983
20.7073
21.1272
21.5578
21.9984
22.4485
22.9075
23.3747
23.8492
24.3302
24.8166
25.3074
25.8013
26.2969
26.7928
27.2873
27.7787
28.2651
28.7445
29.2146
29.6733
30.1181
30.5465
30.9558
31.3434
31.7066
32.0426
32.349
32.6232
32.8628
33.0657
33.2303
33.3553
33.4397
33.4835
33.4871
33.4518
33.38
33.2747
33.1405
32.9826
32.8078
32.6239
32.4398
32.2656
32.1124
31.9923
31.9182
31.9037
31.9629
32.1092
32.3576
32.7231
33.2188
33.8597
34.6594
35.631
36.7879
38.1431
39.7109
41.5016
43.5227
45.7814
48.3
51.0432
54.1184
57.3978
60.7552
64.6907
68.5586
-0.0499083
-0.0481163
-0.0387147
-0.034319
-0.0274245
-0.0216996
-0.015445
-0.00936997
-0.00322061
14.6168
14.6249
14.6411
14.6683
14.7116
14.7727
14.8504
14.9432
15.0502
15.1709
15.3053
15.4533
15.615
15.7903
15.9794
16.1822
16.3992
16.6307
16.8765
17.1364
17.4101
17.6978
17.9993
18.3146
18.6437
18.9864
19.3427
19.7124
20.0953
20.4914
20.9004
21.322
21.7559
22.2018
22.6592
23.1277
23.6067
24.0956
24.5936
25.0999
25.6136
26.1336
26.6589
27.188
27.7197
28.2522
28.784
29.3131
29.8375
30.355
30.8632
31.3597
31.8417
32.3065
32.7511
33.1724
33.5674
33.933
34.2661
34.5637
34.823
35.0413
35.2164
35.3464
35.43
35.4666
35.4562
35.3999
35.2997
35.1587
34.9813
34.7732
34.5414
34.2945
34.0421
33.7954
33.5666
33.3692
33.2175
33.1266
33.1119
33.1889
33.3724
33.6812
34.131
34.7369
35.5141
36.4772
37.6413
39.0239
40.6407
42.5009
44.6152
46.9955
49.6664
52.614
55.889
59.4545
63.1489
67.342
71.8428
-0.0540293
-0.0516319
-0.0417865
-0.0366846
-0.0293768
-0.0231068
-0.0164431
-0.00995273
-0.00343009
15.2707
15.2792
15.2963
15.3248
15.3704
15.4345
15.5161
15.6136
15.7259
15.8527
15.9939
16.1493
16.3191
16.5033
16.702
16.9153
17.1438
17.3874
17.6457
17.9189
18.2067
18.5093
18.8266
19.1585
19.5051
19.8663
20.2419
20.6319
21.0362
21.4545
21.8867
22.3326
22.7918
23.2641
23.7489
24.2458
24.7544
25.2738
25.8034
26.3424
26.8898
27.4446
28.0056
28.5714
29.1406
29.7115
30.2823
30.8511
31.4156
31.9736
32.5223
33.0592
33.5812
34.0852
34.568
35.0261
35.456
35.8542
36.217
36.5408
36.8223
37.0582
37.2456
37.382
37.4655
37.4948
37.4695
37.3901
37.2583
37.0772
36.8509
36.5856
36.2885
35.9689
35.6373
35.3059
34.9885
34.6999
34.4561
34.2739
34.1704
34.1629
34.2678
34.5025
34.8874
35.4428
36.1828
37.1221
38.2788
39.6746
41.3246
43.238
45.4321
47.9221
50.7352
53.8666
57.3587
61.1818
65.3179
69.7489
74.8892
-0.0586295
-0.0545464
-0.0453504
-0.0390399
-0.0313126
-0.0245008
-0.0174195
-0.0105301
-0.00364677
15.9103
15.9192
15.9371
15.9671
16.0148
16.082
16.1675
16.2696
16.3873
16.5201
16.6679
16.8308
17.0087
17.2017
17.41
17.634
17.8737
18.129
18.3998
18.6862
18.9881
19.3056
19.6387
19.9873
20.3515
20.7311
21.1262
21.5367
21.9623
22.4031
22.8588
23.3292
23.8141
24.313
24.8257
25.3517
25.8903
26.441
27.0031
27.5757
28.1578
28.7485
29.3465
29.9504
30.5587
31.1698
31.7816
32.3922
32.9991
33.6
34.1919
34.772
35.337
35.8835
36.4079
36.9062
37.3745
37.8088
38.2047
38.5582
38.8651
39.1215
39.3238
39.4685
39.5532
39.5756
39.5347
39.4305
39.2642
39.0384
38.7575
38.4274
38.056
37.6531
37.2302
36.8008
36.38
35.9844
35.632
35.3415
35.1321
35.0232
35.0343
35.1819
35.4806
35.964
36.647
37.5448
38.6787
40.0699
41.7338
43.6837
45.9412
48.5243
51.4647
54.7659
58.4786
62.5846
67.1486
72.1544
77.6115
-0.0645592
-0.0577591
-0.0486054
-0.0413408
-0.0331612
-0.0258261
-0.0183425
-0.011087
-0.00387085
16.535
16.5443
16.5631
16.5944
16.6443
16.7145
16.8038
16.9105
17.0335
17.1723
17.3268
17.497
17.6829
17.8847
18.1028
18.3372
18.5879
18.8548
19.138
19.4376
19.7536
20.086
20.4348
20.8001
21.1819
21.58
21.9946
22.4256
22.8728
23.3361
23.8155
24.3107
24.8215
25.3476
25.8886
26.444
27.0134
27.5961
28.1914
28.7985
29.4164
30.0442
30.6805
31.324
31.9731
32.6261
33.281
33.9356
34.5874
35.2339
35.8719
36.4983
37.1097
37.7022
38.2718
38.8143
39.3251
39.7995
40.2328
40.62
40.9563
41.2369
41.4572
41.6129
41.7005
41.7171
41.6606
41.5303
41.3267
41.052
40.7103
40.3077
39.8523
39.3545
38.8269
38.2844
37.7438
37.2236
36.7438
36.3255
35.9904
35.7603
35.6567
35.6965
35.8988
36.2899
36.8933
37.7287
38.821
40.1878
41.846
43.8125
46.112
48.7656
51.8113
55.2594
59.1741
63.5387
68.4633
73.8508
79.8941
-0.0702993
-0.0610981
-0.051635
-0.0434923
-0.0348509
-0.0270267
-0.0191745
-0.0116003
-0.00409762
17.1441
17.1538
17.1734
17.2061
17.2582
17.3313
17.4245
17.5357
17.664
17.8087
17.9698
18.1471
18.3411
18.5518
18.7794
19.0239
19.2854
19.5639
19.8595
20.1723
20.5022
20.8495
21.2141
21.596
21.9953
22.412
22.8461
23.2976
23.7664
24.2525
24.7558
25.276
25.813
26.3666
26.9362
27.5217
28.1223
28.7377
29.367
30.0095
30.6643
31.3303
32.0063
32.6909
33.3826
34.0794
34.7795
35.4804
36.1798
36.8746
37.5618
38.238
38.8994
39.5419
40.1609
40.7519
41.3097
41.8291
42.3046
42.7304
43.1008
43.41
43.6524
43.8227
43.9162
43.9287
43.8573
43.7001
43.457
43.1292
42.7207
42.2372
41.6873
41.082
40.4351
39.7628
39.0839
38.4191
37.7908
37.2225
36.7393
36.3674
36.1256
36.0355
36.1203
36.4042
36.9117
37.6669
38.6948
40.0145
41.6435
43.6014
45.9158
48.6105
51.7305
55.292
59.3735
63.9582
69.1998
74.9137
81.6138
-0.0756912
-0.0642528
-0.054345
-0.0453828
-0.0362947
-0.0280344
-0.01987
-0.0120429
-0.00432163
17.7369
17.7471
17.7675
17.8015
17.8557
17.9318
18.0287
18.1445
18.278
18.4285
18.5961
18.7807
18.9827
19.202
19.4389
19.6934
19.9656
20.2556
20.5635
20.8893
21.2332
21.5952
21.9754
22.3739
22.7908
23.226
23.6797
24.1517
24.6423
25.1512
25.6784
26.2239
26.7873
27.3686
27.9673
28.5832
29.2157
29.8643
30.5284
31.2073
31.8999
32.6054
33.3224
34.0497
34.7856
35.5283
36.2757
37.0255
37.775
38.5213
39.2611
39.9907
40.7061
41.4027
42.0758
42.7203
43.3304
43.9003
44.4235
44.8936
45.3037
45.647
45.9166
46.1061
46.2093
46.2207
46.1361
45.9522
45.6678
45.2833
44.8018
44.229
43.5734
42.8468
42.0641
41.2433
40.4053
39.5736
38.7729
38.0289
37.3766
36.8367
36.4329
36.191
36.1366
36.2945
36.6895
37.3472
38.285
39.5343
41.1083
43.0286
45.3257
48.0251
51.1794
54.8092
59.009
63.7628
69.2762
75.269
82.6206
-0.0805114
-0.0670274
-0.0565819
-0.046893
-0.0373986
-0.0287761
-0.0203789
-0.0123857
-0.00453619
18.3129
18.3235
18.3446
18.38
18.4362
18.5153
18.6159
18.7362
18.8748
19.0311
19.2051
19.3969
19.6066
19.8344
20.0805
20.3449
20.6277
20.9291
21.2491
21.5879
21.9456
22.3223
22.7181
23.1331
23.5674
24.0211
24.4942
24.9869
25.4991
26.0309
26.5822
27.153
27.7431
28.3523
28.9805
29.6272
30.292
30.9746
31.6742
32.3901
33.1216
33.8677
34.6271
35.3986
36.1805
36.971
37.7681
38.5692
39.3718
40.1728
40.9687
41.7555
42.5291
43.2847
44.0171
44.7205
45.3888
46.0153
46.5928
47.1137
47.5702
47.9542
48.2575
48.4721
48.5902
48.6049
48.5098
48.3004
47.9738
47.5294
46.969
46.298
45.5249
44.662
43.7254
42.7351
41.7145
40.6906
39.6928
38.7434
37.8951
37.1605
36.57
36.1529
35.9367
35.9473
36.2095
36.7468
37.5802
38.7313
40.2231
42.0744
44.3175
46.9791
50.1183
53.7599
58.0143
62.8683
68.5867
74.795
82.7325
-0.0844399
-0.0690925
-0.0582598
-0.0478823
-0.0380436
-0.0291576
-0.0206356
-0.0125909
-0.00473103
18.8714
18.8823
18.9042
18.9408
18.9991
19.081
19.1853
19.3101
19.4538
19.6158
19.796
19.9948
20.2122
20.4484
20.7034
20.9776
21.2709
21.5835
21.9156
22.2672
22.6386
23.0298
23.4411
23.8725
24.3241
24.7962
25.2887
25.8019
26.3358
26.8905
27.4659
28.0621
28.679
29.3164
29.9742
30.6521
31.3497
32.0667
32.8024
33.5564
34.3277
35.1155
35.9186
36.7357
37.5654
38.4058
39.2547
40.1099
40.9685
41.8275
42.6831
43.5314
44.3679
45.1875
45.9847
46.7532
47.4862
48.1762
48.8153
49.3948
49.9056
50.3384
50.6832
50.9303
51.0702
51.0938
50.9927
50.7604
50.392
49.8852
49.2406
48.4625
47.5592
46.5436
45.433
44.2495
43.0192
41.7733
40.5426
39.3721
38.2912
37.3313
36.5263
35.9083
35.5065
35.3477
35.456
35.8538
36.5625
37.5877
38.9724
40.7223
42.8719
45.4473
48.5132
52.0972
56.325
61.1878
67.0101
73.3451
81.7355
-0.0871178
-0.0702711
-0.0591546
-0.0481865
-0.0381109
-0.0290923
-0.0205816
-0.0126249
-0.00489607
19.4117
19.423
19.4456
19.4835
19.5436
19.6282
19.7364
19.8657
20.0144
20.1818
20.3683
20.5739
20.7988
21.0432
21.3071
21.5908
21.8945
22.2182
22.5621
22.9264
23.3113
23.7169
24.1434
24.591
25.0599
25.5502
26.0621
26.5957
27.1512
27.7286
28.3282
28.9498
29.5935
30.2593
30.9469
31.6563
32.387
33.1389
33.9114
34.704
35.516
36.3466
37.1947
38.059
38.9381
39.8303
40.7335
41.6453
42.5629
43.4832
44.4025
45.3167
46.221
47.1102
47.9782
48.8184
49.6233
50.3847
51.0937
51.7407
52.3152
52.8061
53.202
53.4909
53.6612
53.7014
53.6008
53.35
52.9418
52.3714
51.6378
50.7438
49.6972
48.5111
47.2041
45.8005
44.3296
42.8267
41.3372
39.9021
38.5554
37.3377
36.2879
35.4413
34.8291
34.4785
34.4123
34.6503
35.2092
36.1003
37.3473
38.9622
40.9765
43.4131
46.3394
49.784
53.8844
58.6379
64.42
70.7561
79.3857
-0.0879824
-0.0703782
-0.0589235
-0.047569
-0.0374236
-0.0284499
-0.0201263
-0.0124334
-0.00501085
19.9333
19.9449
19.9683
20.0073
20.0693
20.1567
20.2688
20.4024
20.5559
20.7287
20.9212
21.1335
21.3657
21.6181
21.8908
22.1839
22.4977
22.8322
23.1878
23.5646
23.9628
24.3826
24.8242
25.2879
25.7737
26.2821
26.8131
27.367
27.9439
28.5441
29.1677
29.8147
30.4853
31.1794
31.897
32.638
33.4022
34.1894
34.9992
35.8311
36.6846
37.5589
38.453
39.3659
40.2962
41.2421
42.2018
43.1729
44.1525
45.1377
46.1247
47.1093
48.0866
49.0511
49.9964
50.9155
51.8002
52.6418
53.4303
54.1549
54.8037
55.364
55.8223
56.1645
56.3762
56.4432
56.3516
56.0892
55.6452
55.012
54.1857
53.1675
51.9638
50.5878
49.0595
47.4059
45.6607
43.8601
42.0718
40.3298
38.6782
37.1657
35.8371
34.7322
33.8841
33.32
33.0607
33.1221
33.5161
34.2518
35.3403
36.79
38.6279
40.8712
43.5859
46.7977
50.6503
55.1475
60.6962
66.8542
75.4155
-0.086364
-0.0692856
-0.0573413
-0.0458537
-0.0358569
-0.0271471
-0.0192163
-0.0119855
-0.00506344
20.4355
20.4475
20.4716
20.5117
20.5755
20.6659
20.7818
20.9198
21.0778
21.2559
21.4542
21.673
21.9124
22.1726
22.4537
22.756
23.0797
23.4249
23.792
24.181
24.5923
25.026
25.4825
25.9619
26.4646
26.9907
27.5407
28.1146
28.7128
29.3355
29.983
30.6553
31.3526
32.0751
32.8227
33.5955
34.3933
35.216
36.0635
36.9353
37.8309
38.7498
39.6912
40.6539
41.6368
42.6384
43.6567
44.6896
45.7344
46.7879
47.8467
48.9064
49.962
51.0079
52.0374
53.0431
54.0165
54.9478
55.8263
56.64
57.3755
58.0182
58.5525
58.9617
59.2286
59.3355
59.2648
59.0003
58.5274
57.8344
56.9139
55.7639
54.3891
52.8021
51.0242
49.0855
47.0279
44.8811
42.7476
40.65
38.6467
36.7963
35.1511
33.7558
32.6461
31.8486
31.3809
31.2534
31.4713
32.0362
32.9505
34.2102
35.8345
37.832
40.2609
43.139
46.6065
50.6705
55.7421
61.468
69.5586
-0.0814328
-0.0667818
-0.0541057
-0.0428104
-0.0332192
-0.0250377
-0.0177475
-0.0112139
-0.00501709
20.9179
20.9302
20.9549
20.9961
21.0618
21.1553
21.275
21.417
21.5794
21.7626
21.9666
22.1917
22.438
22.7058
22.9952
23.3065
23.6398
23.9955
24.3737
24.7747
25.1988
25.6462
26.1172
26.6122
27.1313
27.675
28.2436
28.8374
29.4566
30.1016
30.7727
31.4701
32.194
32.9447
33.7223
34.5268
35.3583
36.2168
37.1022
38.0142
38.9526
39.9168
40.9062
41.9199
42.957
44.0158
45.0949
46.1921
47.3049
48.4304
49.565
50.7045
51.8439
52.9774
54.0984
55.1991
56.2703
57.3019
58.2821
59.1978
60.0339
60.7742
61.4005
61.8935
62.2325
62.3957
62.3614
62.1085
61.6171
60.8707
59.8568
58.569
57.0091
55.1885
53.1288
50.8623
48.4351
45.9129
43.3675
40.8539
38.443
36.2043
34.1994
32.4795
31.0828
30.0347
29.3481
29.0258
29.0633
29.4518
30.1826
31.2368
32.6191
34.3244
36.3982
38.8408
41.7757
45.2043
49.5117
54.4492
61.6003
-0.0724399
-0.0630585
-0.0490133
-0.0383225
-0.0294197
-0.0220717
-0.0156957
-0.0101066
-0.00486802
21.3799
21.3925
21.4178
21.4601
21.5276
21.6242
21.7476
21.8935
22.0602
22.2482
22.4577
22.6889
22.942
23.2171
23.5146
23.8346
24.1773
24.5431
24.9322
25.3449
25.7815
26.2422
26.7275
27.2376
27.773
28.3339
28.9208
29.534
30.1739
30.8409
31.5353
32.2575
33.0078
33.7865
34.5938
35.4299
36.2951
37.1894
38.1128
39.0653
40.0468
41.0569
42.0951
43.1608
44.2532
45.3709
46.5126
47.6764
48.8601
50.0608
51.2753
52.4993
53.728
54.9558
56.1758
57.3799
58.559
59.7022
60.7968
61.8286
62.7813
63.6365
64.3737
64.9703
65.4018
65.6421
65.6643
65.4411
64.9467
64.1576
63.0548
61.6259
59.8679
57.7896
55.413
52.773
49.9219
46.9483
43.9255
40.9269
38.0416
35.355
32.9413
30.8599
29.1519
27.8404
26.9314
26.4173
26.2808
26.4987
27.0481
27.8911
29.0199
30.3987
32.0632
33.9786
36.2389
38.8153
42.0508
45.7035
51.4528
-0.0583161
-0.0592695
-0.0407972
-0.0322064
-0.0242482
-0.0181164
-0.0129778
-0.0086066
-0.00455834
21.821
21.8339
21.8598
21.903
21.9725
22.0721
22.1991
22.3486
22.5194
22.7122
22.927
23.1641
23.4237
23.706
24.0112
24.3396
24.6915
25.0671
25.4667
25.8908
26.3395
26.8132
27.3124
27.8373
28.3885
28.9662
29.571
30.2032
30.8634
31.552
32.2693
33.016
33.7923
34.5986
35.4354
36.3029
37.2015
38.1314
39.0929
40.086
41.1108
42.1671
43.2547
44.3731