/*--------------------------------*- C++ -*----------------------------------*\
| =========                 |                                                 |
| \\      /  F ield         | OpenFOAM: The Open Source CFD Toolbox           |
|  \\    /   O peration     | Version:  v2106                                 |
|   \\  /    A nd           | Website:  www.openfoam.com                      |
|    \\/     M anipulation  |                                                 |
\*---------------------------------------------------------------------------*/
FoamFile
{
    version     2.0;
    format      ascii;
    arch        "LSB;label=32;scalar=64";
    class       surfaceScalarField;
    location    "0.7";
    object      phi;
}
// * * * * * * * * * * * * * * * * * * * * * * * * * * * * * * * * * * * * * //

dimensions      [0 3 -1 0 0 0 0];

oriented        oriented;

internalField   nonuniform List<scalar> 
59425
(
-1.91853e-09
-1.70653e-06
-4.01602e-09
-1.71649e-06
-6.14576e-09
-1.7198e-06
-8.24355e-09
-1.72377e-06
-1.03354e-08
-1.72902e-06
-1.24401e-08
-1.73591e-06
-1.45608e-08
-1.74466e-06
-1.66939e-08
-1.75532e-06
-1.8836e-08
-1.7678e-06
-2.09859e-08
-1.78203e-06
-2.31443e-08
-1.79793e-06
-2.53129e-08
-1.81548e-06
-2.74931e-08
-1.83466e-06
-2.96865e-08
-1.85548e-06
-3.18941e-08
-1.87794e-06
-3.41166e-08
-1.90204e-06
-3.63546e-08
-1.92779e-06
-3.86083e-08
-1.9552e-06
-4.08777e-08
-1.98427e-06
-4.31623e-08
-2.015e-06
-4.54615e-08
-2.0474e-06
-4.7774e-08
-2.08147e-06
-5.00985e-08
-2.11722e-06
-5.24331e-08
-2.15463e-06
-5.47766e-08
-2.1937e-06
-5.71287e-08
-2.23443e-06
-5.94904e-08
-2.27681e-06
-6.18536e-08
-2.32084e-06
-6.41933e-08
-2.36657e-06
-6.64846e-08
-2.41399e-06
-6.87111e-08
-2.46308e-06
-7.08584e-08
-2.51385e-06
-7.29208e-08
-2.56627e-06
-7.48999e-08
-2.62032e-06
-7.67984e-08
-2.67597e-06
-7.8619e-08
-2.73318e-06
-8.03638e-08
-2.79191e-06
-8.20349e-08
-2.85214e-06
-8.36348e-08
-2.9138e-06
-8.51661e-08
-2.97686e-06
-8.66236e-08
-3.04123e-06
-8.80036e-08
-3.10687e-06
-8.93087e-08
-3.17369e-06
-9.05374e-08
-3.24164e-06
-9.16852e-08
-3.31061e-06
-9.27461e-08
-3.38051e-06
-9.37132e-08
-3.45125e-06
-9.45788e-08
-3.5227e-06
-9.53347e-08
-3.59476e-06
-9.59721e-08
-3.6673e-06
-9.64822e-08
-3.74019e-06
-9.68555e-08
-3.81328e-06
-9.70828e-08
-3.88643e-06
-9.71545e-08
-3.95949e-06
-9.70612e-08
-4.03229e-06
-9.67937e-08
-4.10467e-06
-9.63431e-08
-4.17646e-06
-9.57007e-08
-4.2475e-06
-9.48579e-08
-4.31759e-06
-9.38047e-08
-4.38656e-06
-9.25244e-08
-4.45422e-06
-9.09833e-08
-4.52039e-06
-8.91616e-08
-4.58493e-06
-8.70462e-08
-4.64767e-06
-8.46001e-08
-4.70843e-06
-8.1781e-08
-4.76704e-06
-7.85428e-08
-4.82335e-06
-7.48357e-08
-4.87721e-06
-7.06228e-08
-4.92846e-06
-6.59043e-08
-4.97695e-06
-6.06989e-08
-5.02265e-06
-5.5082e-08
-5.06547e-06
-4.91318e-08
-5.10543e-06
-4.28725e-08
-5.14261e-06
-3.63216e-08
-5.17695e-06
-2.94976e-08
-5.20842e-06
-2.242e-08
-5.23699e-06
-1.51096e-08
-5.26265e-06
-7.58936e-09
-5.28539e-06
1.13668e-10
-5.30522e-06
7.96466e-09
-5.32213e-06
1.59153e-08
-5.33613e-06
2.39001e-08
-5.3472e-06
3.18375e-08
-5.35535e-06
3.96284e-08
-5.36047e-06
4.71749e-08
-5.36234e-06
5.44157e-08
-5.36058e-06
6.13584e-08
-5.35468e-06
6.80752e-08
-5.34427e-06
7.46824e-08
-5.32908e-06
8.13308e-08
-5.3087e-06
8.81978e-08
-5.28247e-06
9.54799e-08
-5.2497e-06
1.03452e-07
-5.20958e-06
1.12627e-07
-5.16047e-06
1.23546e-07
-5.09982e-06
1.35086e-07
-5.03467e-06
1.40588e-07
-4.99593e-06
1.40615e-07
-5.003e-06
-6.86123e-07
-6.04008e-06
-1.43779e-05
-4.96598e-05
-1.61326e-05
-1.38587e-05
-1.49984e-05
-1.30961e-05
-1.37577e-05
-7.19906e-06
-1.25913e-05
-7.30027e-06
-1.26513e-05
-6.20636e-06
-1.31308e-05
-5.62284e-06
-1.36054e-05
-4.17748e-06
-1.37094e-05
-2.40795e-06
-2.83399e-07
-2.95776e-09
-1.70357e-06
-5.92036e-09
-1.71353e-06
-8.87548e-09
-1.71684e-06
-1.18384e-08
-1.72081e-06
-1.48238e-08
-1.72603e-06
-1.78374e-08
-1.73289e-06
-2.08737e-08
-1.74163e-06
-2.39247e-08
-1.75227e-06
-2.69855e-08
-1.76474e-06
-3.00553e-08
-1.77896e-06
-3.31358e-08
-1.79485e-06
-3.62292e-08
-1.81239e-06
-3.93375e-08
-1.83156e-06
-4.24624e-08
-1.85236e-06
-4.5605e-08
-1.8748e-06
-4.8766e-08
-1.89888e-06
-5.19458e-08
-1.92461e-06
-5.51441e-08
-1.952e-06
-5.83604e-08
-1.98105e-06
-6.15936e-08
-2.01177e-06
-6.48419e-08
-2.04415e-06
-6.81025e-08
-2.07821e-06
-7.13718e-08
-2.11395e-06
-7.46453e-08
-2.15135e-06
-7.79188e-08
-2.19043e-06
-8.11896e-08
-2.23116e-06
-8.44426e-08
-2.27355e-06
-8.76471e-08
-2.31763e-06
-9.07742e-08
-2.36344e-06
-9.38098e-08
-2.41095e-06
-9.67526e-08
-2.46014e-06
-9.96065e-08
-2.511e-06
-1.02375e-07
-2.56351e-06
-1.05061e-07
-2.61764e-06
-1.07664e-07
-2.67336e-06
-1.10184e-07
-2.73066e-06
-1.1262e-07
-2.78948e-06
-1.14971e-07
-2.84979e-06
-1.17235e-07
-2.91154e-06
-1.19414e-07
-2.97468e-06
-1.21504e-07
-3.03914e-06
-1.23502e-07
-3.10487e-06
-1.254e-07
-3.1718e-06
-1.2719e-07
-3.23985e-06
-1.28857e-07
-3.30894e-06
-1.30386e-07
-3.37898e-06
-1.31762e-07
-3.44987e-06
-1.3297e-07
-3.52149e-06
-1.33995e-07
-3.59374e-06
-1.34819e-07
-3.66648e-06
-1.3543e-07
-3.73958e-06
-1.3581e-07
-3.8129e-06
-1.35948e-07
-3.88629e-06
-1.35829e-07
-3.9596e-06
-1.35442e-07
-4.03267e-06
-1.34778e-07
-4.10533e-06
-1.33829e-07
-4.17741e-06
-1.32589e-07
-4.24873e-06
-1.31058e-07
-4.31912e-06
-1.29236e-07
-4.38838e-06
-1.27123e-07
-4.45633e-06
-1.24707e-07
-4.52281e-06
-1.2198e-07
-4.58766e-06
-1.18929e-07
-4.65073e-06
-1.15527e-07
-4.71183e-06
-1.11752e-07
-4.77082e-06
-1.07578e-07
-4.82753e-06
-1.02978e-07
-4.88181e-06
-9.79113e-08
-4.93352e-06
-9.23225e-08
-4.98254e-06
-8.61835e-08
-5.02879e-06
-7.95648e-08
-5.07209e-06
-7.25772e-08
-5.11242e-06
-6.52963e-08
-5.14989e-06
-5.77573e-08
-5.18449e-06
-4.99936e-08
-5.21619e-06
-4.2035e-08
-5.24495e-06
-3.39076e-08
-5.27078e-06
-2.56346e-08
-5.29366e-06
-1.72392e-08
-5.31361e-06
-8.74856e-09
-5.33062e-06
-1.95759e-10
-5.34468e-06
8.37406e-09
-5.35577e-06
1.68946e-08
-5.36387e-06
2.53076e-08
-5.36888e-06
3.35773e-08
-5.37061e-06
4.17299e-08
-5.36873e-06
4.98707e-08
-5.36282e-06
5.81604e-08
-5.35256e-06
6.67884e-08
-5.33771e-06
7.59813e-08
-5.31789e-06
8.60301e-08
-5.29252e-06
9.73272e-08
-5.261e-06
1.10574e-07
-5.22282e-06
1.27352e-07
-5.17725e-06
1.50417e-07
-5.12289e-06
1.82023e-07
-5.06627e-06
2.26609e-07
-5.04052e-06
3.03687e-07
-5.08008e-06
-4.12923e-07
-5.32347e-06
-1.53452e-05
-3.47275e-05
-1.6327e-05
-1.28769e-05
-1.34322e-05
-1.59908e-05
-1.23739e-05
-8.25741e-06
-1.11878e-05
-8.48641e-06
-1.13398e-05
-6.0543e-06
-1.16937e-05
-5.26894e-06
-1.21568e-05
-3.7144e-06
-1.22628e-05
-2.302e-06
-7.03035e-07
-4.30798e-09
-1.69927e-06
-8.59093e-09
-1.70925e-06
-1.28466e-08
-1.71259e-06
-1.71071e-08
-1.71655e-06
-2.13944e-08
-1.72174e-06
-2.57142e-08
-1.72858e-06
-3.00614e-08
-1.73728e-06
-3.44288e-08
-1.7479e-06
-3.88122e-08
-1.76036e-06
-4.32106e-08
-1.77456e-06
-4.76254e-08
-1.79044e-06
-5.20588e-08
-1.80795e-06
-5.65127e-08
-1.8271e-06
-6.09887e-08
-1.84788e-06
-6.54879e-08
-1.8703e-06
-7.0011e-08
-1.89436e-06
-7.45578e-08
-1.92007e-06
-7.9128e-08
-1.94743e-06
-8.37204e-08
-1.97646e-06
-8.8333e-08
-2.00715e-06
-9.29628e-08
-2.03952e-06
-9.76055e-08
-2.07357e-06
-1.02255e-07
-2.1093e-06
-1.06901e-07
-2.14671e-06
-1.11535e-07
-2.1858e-06
-1.16148e-07
-2.22655e-06
-1.20716e-07
-2.26898e-06
-1.25215e-07
-2.31314e-06
-1.29651e-07
-2.359e-06
-1.34037e-07
-2.40656e-06
-1.38384e-07
-2.45579e-06
-1.42699e-07
-2.50668e-06
-1.46977e-07
-2.55923e-06
-1.5121e-07
-2.61341e-06
-1.55384e-07
-2.66919e-06
-1.59488e-07
-2.72655e-06
-1.63509e-07
-2.78546e-06
-1.67433e-07
-2.84586e-06
-1.71246e-07
-2.90773e-06
-1.7493e-07
-2.971e-06
-1.78463e-07
-3.03561e-06
-1.81821e-07
-3.10151e-06
-1.84988e-07
-3.16863e-06
-1.87945e-07
-3.23689e-06
-1.90673e-07
-3.30621e-06
-1.9315e-07
-3.37651e-06
-1.95354e-07
-3.44767e-06
-1.97262e-07
-3.51959e-06
-1.98851e-07
-3.59215e-06
-2.00098e-07
-3.66523e-06
-2.00979e-07
-3.73869e-06
-2.01473e-07
-3.8124e-06
-2.01556e-07
-3.88621e-06
-2.01211e-07
-3.95995e-06
-2.00417e-07
-4.03347e-06
-1.99158e-07
-4.10659e-06
-1.97422e-07
-4.17915e-06
-1.95195e-07
-4.25096e-06
-1.9247e-07
-4.32184e-06
-1.89239e-07
-4.39161e-06
-1.85493e-07
-4.46008e-06
-1.81224e-07
-4.52708e-06
-1.76448e-07
-4.59243e-06
-1.71194e-07
-4.65598e-06
-1.65483e-07
-4.71755e-06
-1.59337e-07
-4.77697e-06
-1.52784e-07
-4.83408e-06
-1.45853e-07
-4.88874e-06
-1.38562e-07
-4.94081e-06
-1.30903e-07
-4.9902e-06
-1.22845e-07
-5.03684e-06
-1.14343e-07
-5.08059e-06
-1.05415e-07
-5.12135e-06
-9.6171e-08
-5.15913e-06
-8.6677e-08
-5.19399e-06
-7.69837e-08
-5.22588e-06
-6.71329e-08
-5.2548e-06
-5.71575e-08
-5.28075e-06
-4.70812e-08
-5.30374e-06
-3.69226e-08
-5.32377e-06
-2.66988e-08
-5.34084e-06
-1.64293e-08
-5.35495e-06
-6.13218e-09
-5.36607e-06
4.18638e-09
-5.37418e-06
1.45506e-08
-5.37924e-06
2.50746e-08
-5.38114e-06
3.59549e-08
-5.37961e-06
4.74449e-08
-5.37431e-06
5.9806e-08
-5.36492e-06
7.32786e-08
-5.35118e-06
8.81079e-08
-5.33272e-06
1.04591e-07
-5.309e-06
1.23084e-07
-5.27949e-06
1.44013e-07
-5.24375e-06
1.6769e-07
-5.20093e-06
1.93821e-07
-5.14902e-06
2.19747e-07
-5.0922e-06
2.39676e-07
-5.06045e-06
2.49448e-07
-5.08985e-06
8.84406e-08
-5.16246e-06
-8.72936e-06
-2.59097e-05
-9.48417e-06
-1.21221e-05
-9.71053e-06
-1.57644e-05
-9.93098e-06
-8.03695e-06
-9.81943e-06
-8.59795e-06
-1.00743e-05
-5.79945e-06
-1.03098e-05
-5.03345e-06
-1.05986e-05
-3.42554e-06
-1.07193e-05
-2.18129e-06
-8.03722e-07
-5.78965e-09
-1.69348e-06
-1.15691e-08
-1.70347e-06
-1.7317e-08
-1.70684e-06
-2.30627e-08
-1.7108e-06
-2.88293e-08
-1.71598e-06
-3.46259e-08
-1.72278e-06
-4.04519e-08
-1.73145e-06
-4.63038e-08
-1.74205e-06
-5.21788e-08
-1.75448e-06
-5.80764e-08
-1.76866e-06
-6.39978e-08
-1.78451e-06
-6.99448e-08
-1.80201e-06
-7.59192e-08
-1.82113e-06
-8.19224e-08
-1.84188e-06
-8.79554e-08
-1.86427e-06
-9.40187e-08
-1.8883e-06
-1.00112e-07
-1.91397e-06
-1.06235e-07
-1.94131e-06
-1.12386e-07
-1.97031e-06
-1.18561e-07
-2.00098e-06
-1.24758e-07
-2.03333e-06
-1.30971e-07
-2.06736e-06
-1.37192e-07
-2.10308e-06
-1.43408e-07
-2.14049e-06
-1.49615e-07
-2.17959e-06
-1.55815e-07
-2.22035e-06
-1.62003e-07
-2.2628e-06
-1.68178e-07
-2.30696e-06
-1.74343e-07
-2.35284e-06
-1.80489e-07
-2.40042e-06
-1.86595e-07
-2.44969e-06
-1.92651e-07
-2.50063e-06
-1.98646e-07
-2.55323e-06
-2.0457e-07
-2.60748e-06
-2.10408e-07
-2.66335e-06
-2.16144e-07
-2.72082e-06
-2.2176e-07
-2.77984e-06
-2.27235e-07
-2.84039e-06
-2.32549e-07
-2.90241e-06
-2.37676e-07
-2.96587e-06
-2.42589e-07
-3.0307e-06
-2.47259e-07
-3.09684e-06
-2.51659e-07
-3.16423e-06
-2.55761e-07
-3.23279e-06
-2.59536e-07
-3.30244e-06
-2.62953e-07
-3.37309e-06
-2.65981e-07
-3.44464e-06
-2.68588e-07
-3.51698e-06
-2.70742e-07
-3.58999e-06
-2.72412e-07
-3.66356e-06
-2.73566e-07
-3.73754e-06
-2.74172e-07
-3.8118e-06
-2.74202e-07
-3.88618e-06
-2.73628e-07
-3.96052e-06
-2.72425e-07
-4.03467e-06
-2.7057e-07
-4.10845e-06
-2.68044e-07
-4.18168e-06
-2.64832e-07
-4.25417e-06
-2.60923e-07
-4.32575e-06
-2.56309e-07
-4.39622e-06
-2.50988e-07
-4.4654e-06
-2.44964e-07
-4.5331e-06
-2.38257e-07
-4.59914e-06
-2.30898e-07
-4.66334e-06
-2.22921e-07
-4.72552e-06
-2.14366e-07
-4.78552e-06
-2.05274e-07
-4.84317e-06
-1.95691e-07
-4.89832e-06
-1.85653e-07
-4.95085e-06
-1.75204e-07
-5.00065e-06
-1.64411e-07
-5.04763e-06
-1.53281e-07
-5.09172e-06
-1.41798e-07
-5.13283e-06
-1.29993e-07
-5.17094e-06
-1.17948e-07
-5.20603e-06
-1.05719e-07
-5.23811e-06
-9.33564e-08
-5.26716e-06
-8.08997e-08
-5.29321e-06
-6.83735e-08
-5.31626e-06
-5.57933e-08
-5.33635e-06
-4.31687e-08
-5.35347e-06
-3.05013e-08
-5.36761e-06
-1.77768e-08
-5.37879e-06
-4.92657e-09
-5.38703e-06
8.21239e-09
-5.39238e-06
2.19043e-08
-5.39483e-06
3.64845e-08
-5.39419e-06
5.22805e-08
-5.39011e-06
6.95765e-08
-5.38222e-06
8.85992e-08
-5.37021e-06
1.09556e-07
-5.35368e-06
1.32678e-07
-5.33212e-06
1.58154e-07
-5.30497e-06
1.86014e-07
-5.27161e-06
2.16078e-07
-5.23099e-06
2.47833e-07
-5.18077e-06
2.79283e-07
-5.12365e-06
3.03954e-07
-5.08512e-06
3.23556e-07
-5.10945e-06
3.15286e-07
-5.15419e-06
-4.68096e-06
-2.09135e-05
-5.20048e-06
-1.16026e-05
-7.01115e-06
-1.39538e-05
-7.70333e-06
-7.34477e-06
-8.13891e-06
-8.16237e-06
-8.55405e-06
-5.38431e-06
-8.86853e-06
-4.71898e-06
-9.16576e-06
-3.1283e-06
-9.30703e-06
-2.04002e-06
-8.21946e-07
-7.31266e-09
-1.68616e-06
-1.46403e-08
-1.69614e-06
-2.19479e-08
-1.69953e-06
-2.92532e-08
-1.7035e-06
-3.65741e-08
-1.70866e-06
-4.39206e-08
-1.71543e-06
-5.12963e-08
-1.72408e-06
-5.87012e-08
-1.73464e-06
-6.61352e-08
-1.74705e-06
-7.3599e-08
-1.7612e-06
-8.1094e-08
-1.77702e-06
-8.8622e-08
-1.79448e-06
-9.61849e-08
-1.81357e-06
-1.03784e-07
-1.83428e-06
-1.1142e-07
-1.85663e-06
-1.19094e-07
-1.88062e-06
-1.26806e-07
-1.90626e-06
-1.34553e-07
-1.93356e-06
-1.42336e-07
-1.96253e-06
-1.50149e-07
-1.99316e-06
-1.57991e-07
-2.02548e-06
-1.65854e-07
-2.05949e-06
-1.73731e-07
-2.0952e-06
-1.81614e-07
-2.13261e-06
-1.89513e-07
-2.17169e-06
-1.9743e-07
-2.21243e-06
-2.05354e-07
-2.25487e-06
-2.13269e-07
-2.29905e-06
-2.21166e-07
-2.34494e-06
-2.29033e-07
-2.39255e-06
-2.36855e-07
-2.44187e-06
-2.44613e-07
-2.49287e-06
-2.52293e-07
-2.54555e-06
-2.59876e-07
-2.5999e-06
-2.67343e-07
-2.65589e-06
-2.74673e-07
-2.71349e-06
-2.81842e-07
-2.77267e-06
-2.88825e-07
-2.83341e-06
-2.95592e-07
-2.89565e-06
-3.02115e-07
-2.95935e-06
-3.0836e-07
-3.02445e-06
-3.14292e-07
-3.09091e-06
-3.19878e-07
-3.15864e-06
-3.2508e-07
-3.22759e-06
-3.29861e-07
-3.29766e-06
-3.34182e-07
-3.36877e-06
-3.38004e-07
-3.44082e-06
-3.41286e-07
-3.5137e-06
-3.43987e-07
-3.58729e-06
-3.46066e-07
-3.66148e-06
-3.47484e-07
-3.73612e-06
-3.48202e-07
-3.81108e-06
-3.48182e-07
-3.8862e-06
-3.47391e-07
-3.96131e-06
-3.45795e-07
-4.03627e-06
-3.43367e-07
-4.11088e-06
-3.40084e-07
-4.18496e-06
-3.35926e-07
-4.25833e-06
-3.3088e-07
-4.3308e-06
-3.2494e-07
-4.40216e-06
-3.18106e-07
-4.47224e-06
-3.10389e-07
-4.54082e-06
-3.01809e-07
-4.60772e-06
-2.92401e-07
-4.67275e-06
-2.82206e-07
-4.73572e-06
-2.71272e-07
-4.79645e-06
-2.59658e-07
-4.85478e-06
-2.47427e-07
-4.91056e-06
-2.34645e-07
-4.96363e-06
-2.21389e-07
-5.0139e-06
-2.0774e-07
-5.06128e-06
-1.93749e-07
-5.10571e-06
-1.79437e-07
-5.14714e-06
-1.64798e-07
-5.18558e-06
-1.49903e-07
-5.22092e-06
-1.34835e-07
-5.25317e-06
-1.19658e-07
-5.28234e-06
-1.04421e-07
-5.30844e-06
-8.91568e-08
-5.33153e-06
-7.38843e-08
-5.35162e-06
-5.86133e-08
-5.36874e-06
-4.33302e-08
-5.3829e-06
-2.79678e-08
-5.39416e-06
-1.23647e-08
-5.40264e-06
3.78337e-09
-5.40853e-06
2.08286e-08
-5.41187e-06
3.915e-08
-5.41251e-06
5.90609e-08
-5.41002e-06
8.0836e-08
-5.40399e-06
1.04714e-07
-5.39408e-06
1.30925e-07
-5.37989e-06
1.59714e-07
-5.36091e-06
1.91327e-07
-5.33658e-06
2.25848e-07
-5.30613e-06
2.63323e-07
-5.26846e-06
3.03561e-07
-5.22101e-06
3.45647e-07
-5.16573e-06
3.83887e-07
-5.12336e-06
4.19258e-07
-5.14483e-06
4.65631e-07
-5.20056e-06
-2.61522e-06
-1.78326e-05
-2.94255e-06
-1.12753e-05
-4.98986e-06
-1.19064e-05
-5.89366e-06
-6.44097e-06
-6.64597e-06
-7.41006e-06
-7.17107e-06
-4.85922e-06
-7.56127e-06
-4.32878e-06
-7.86894e-06
-2.82063e-06
-8.03428e-06
-1.87468e-06
-7.77981e-07
-8.85512e-09
-1.67731e-06
-1.77459e-08
-1.68725e-06
-2.66291e-08
-1.69065e-06
-3.5514e-08
-1.69462e-06
-4.44129e-08
-1.69976e-06
-5.33352e-08
-1.70651e-06
-6.22863e-08
-1.71513e-06
-7.12695e-08
-1.72566e-06
-8.0287e-08
-1.73803e-06
-8.93408e-08
-1.75214e-06
-9.84331e-08
-1.76793e-06
-1.07566e-07
-1.78535e-06
-1.16742e-07
-1.80439e-06
-1.25961e-07
-1.82506e-06
-1.35226e-07
-1.84737e-06
-1.44537e-07
-1.87131e-06
-1.53893e-07
-1.89691e-06
-1.63293e-07
-1.92416e-06
-1.72736e-07
-1.95308e-06
-1.82219e-07
-1.98368e-06
-1.91736e-07
-2.01597e-06
-2.01284e-07
-2.04995e-06
-2.10855e-07
-2.08563e-06
-2.20449e-07
-2.12302e-06
-2.30074e-07
-2.16206e-06
-2.39721e-07
-2.20278e-06
-2.49366e-07
-2.24523e-06
-2.58999e-07
-2.28941e-06
-2.68607e-07
-2.33533e-06
-2.78175e-07
-2.38298e-06
-2.87687e-07
-2.43235e-06
-2.97123e-07
-2.48343e-06
-3.06463e-07
-2.53621e-06
-3.15685e-07
-2.59068e-06
-3.24765e-07
-2.64681e-06
-3.33676e-07
-2.70458e-06
-3.42389e-07
-2.76396e-06
-3.50873e-07
-2.82492e-06
-3.59095e-07
-2.88743e-06
-3.67017e-07
-2.95142e-06
-3.74601e-07
-3.01687e-06
-3.81806e-07
-3.0837e-06
-3.88589e-07
-3.15186e-06
-3.94906e-07
-3.22127e-06
-4.00711e-07
-3.29185e-06
-4.05956e-07
-3.36352e-06
-4.10593e-07
-3.43618e-06
-4.14573e-07
-3.50972e-06
-4.17845e-07
-3.58402e-06
-4.20361e-07
-3.65896e-06
-4.22071e-07
-3.73441e-06
-4.22928e-07
-3.81022e-06
-4.22886e-07
-3.88624e-06
-4.21903e-07
-3.9623e-06
-4.19941e-07
-4.03823e-06
-4.16964e-07
-4.11385e-06
-4.12943e-07
-4.18898e-06
-4.07857e-07
-4.26342e-06
-4.01688e-07
-4.33697e-06
-3.94431e-07
-4.40942e-06
-3.86087e-07
-4.48058e-06
-3.7667e-07
-4.55023e-06
-3.66204e-07
-4.61818e-06
-3.54727e-07
-4.68422e-06
-3.42287e-07
-4.74816e-06
-3.28946e-07
-4.80979e-06
-3.14773e-07
-4.86896e-06
-2.9985e-07
-4.92548e-06
-2.84266e-07
-4.97921e-06
-2.68122e-07
-5.03004e-06
-2.51525e-07
-5.07788e-06
-2.34572e-07
-5.12266e-06
-2.17328e-07
-5.16439e-06
-1.99813e-07
-5.20309e-06
-1.81999e-07
-5.23874e-06
-1.63988e-07
-5.27118e-06
-1.45885e-07
-5.30044e-06
-1.27773e-07
-5.32655e-06
-1.09707e-07
-5.34959e-06
-9.17205e-08
-5.36961e-06
-7.38282e-08
-5.38663e-06
-5.59862e-08
-5.40074e-06
-3.80456e-08
-5.4121e-06
-1.97206e-08
-5.42096e-06
-6.27764e-10
-5.42762e-06
1.96455e-08
-5.43215e-06
4.13985e-08
-5.43426e-06
6.49427e-08
-5.43356e-06
9.05959e-08
-5.42965e-06
1.18682e-07
-5.42217e-06
1.49538e-07
-5.41074e-06
1.83542e-07
-5.39491e-06
2.21089e-07
-5.37413e-06
2.62439e-07
-5.34748e-06
3.0788e-07
-5.31391e-06
3.57598e-07
-5.27073e-06
4.11624e-07
-5.21976e-06
4.66123e-07
-5.17786e-06
5.20345e-07
-5.19905e-06
5.94613e-07
-5.27483e-06
-1.48769e-06
-1.57503e-05
-1.74249e-06
-1.10205e-05
-3.60079e-06
-1.00482e-05
-4.49815e-06
-5.54361e-06
-5.35757e-06
-6.55065e-06
-5.92499e-06
-4.29179e-06
-6.35812e-06
-3.89565e-06
-6.67199e-06
-2.50675e-06
-6.85006e-06
-1.69661e-06
-7.06277e-07
-1.04056e-08
-1.6669e-06
-2.08624e-08
-1.6768e-06
-3.13211e-08
-1.68019e-06
-4.17861e-08
-1.68415e-06
-5.22662e-08
-1.68928e-06
-6.27696e-08
-1.69601e-06
-7.3303e-08
-1.7046e-06
-8.38717e-08
-1.71509e-06
-9.44797e-08
-1.72742e-06
-1.0513e-07
-1.74149e-06
-1.15827e-07
-1.75723e-06
-1.26572e-07
-1.7746e-06
-1.37367e-07
-1.79359e-06
-1.48215e-07
-1.81421e-06
-1.59117e-07
-1.83646e-06
-1.70074e-07
-1.86036e-06
-1.81084e-07
-1.8859e-06
-1.92149e-07
-1.9131e-06
-2.03264e-07
-1.94197e-06
-2.14428e-07
-1.97252e-06
-2.25636e-07
-2.00476e-06
-2.36883e-07
-2.0387e-06
-2.48163e-07
-2.07435e-06
-2.59483e-07
-2.1117e-06
-2.70838e-07
-2.15071e-06
-2.82208e-07
-2.19141e-06
-2.93571e-07
-2.23386e-06
-3.04919e-07
-2.27806e-06
-3.16238e-07
-2.32402e-06
-3.27511e-07
-2.37171e-06
-3.38718e-07
-2.42115e-06
-3.49838e-07
-2.47231e-06
-3.60848e-07
-2.52521e-06
-3.7172e-07
-2.57981e-06
-3.82426e-07
-2.6361e-06
-3.92936e-07
-2.69407e-06
-4.03214e-07
-2.75368e-06
-4.13225e-07
-2.81491e-06
-4.22928e-07
-2.87772e-06
-4.32281e-07
-2.94207e-06
-4.41238e-07
-3.00791e-06
-4.49751e-07
-3.07519e-06
-4.5777e-07
-3.14384e-06
-4.65242e-07
-3.2138e-06
-4.72113e-07
-3.28498e-06
-4.78327e-07
-3.35731e-06
-4.83825e-07
-3.43068e-06
-4.88549e-07
-3.50499e-06
-4.92439e-07
-3.58013e-06
-4.95438e-07
-3.65596e-06
-4.97486e-07
-3.73236e-06
-4.98526e-07
-3.80918e-06
-4.98504e-07
-3.88626e-06
-4.97368e-07
-3.96343e-06
-4.95073e-07
-4.04052e-06
-4.91576e-07
-4.11735e-06
-4.86842e-07
-4.19371e-06
-4.80844e-07
-4.26942e-06
-4.73562e-07
-4.34425e-06
-4.64988e-07
-4.418e-06
-4.55123e-07
-4.49044e-06
-4.43984e-07
-4.56137e-06
-4.31598e-07
-4.63057e-06
-4.18008e-07
-4.69781e-06
-4.03269e-07
-4.76289e-06
-3.87452e-07
-4.82561e-06
-3.70639e-07
-4.88577e-06
-3.52926e-07
-4.94319e-06
-3.34422e-07
-4.99772e-06
-3.15249e-07
-5.04922e-06
-2.95538e-07
-5.09759e-06
-2.75431e-07
-5.14277e-06
-2.5507e-07
-5.18475e-06
-2.34565e-07
-5.22359e-06
-2.13878e-07
-5.25942e-06
-1.92976e-07
-5.29209e-06
-1.71983e-07
-5.32143e-06
-1.51045e-07
-5.34749e-06
-1.30261e-07
-5.37038e-06
-1.09688e-07
-5.39018e-06
-8.93249e-08
-5.40699e-06
-6.90562e-08
-5.42101e-06
-4.86132e-08
-5.43254e-06
-2.76006e-08
-5.44197e-06
-5.62834e-09
-5.44959e-06
1.76174e-08
-5.45539e-06
4.24351e-08
-5.45908e-06
6.91694e-08
-5.46029e-06
9.82318e-08
-5.45871e-06
1.3007e-07
-5.454e-06
1.6517e-07
-5.44584e-06
2.04097e-07
-5.43384e-06
2.47336e-07
-5.41737e-06
2.95357e-07
-5.3955e-06
3.48688e-07
-5.36724e-06
4.07838e-07
-5.32988e-06
4.7345e-07
-5.28537e-06
5.42991e-07
-5.2474e-06
6.15048e-07
-5.2711e-06
7.09404e-07
-5.36919e-06
-7.78405e-07
-1.42625e-05
-1.0158e-06
-1.07831e-05
-2.5956e-06
-8.46836e-06
-3.42197e-06
-4.71724e-06
-4.2832e-06
-5.68942e-06
-4.85113e-06
-3.72386e-06
-5.30103e-06
-3.44574e-06
-5.61632e-06
-2.19147e-06
-5.80254e-06
-1.51038e-06
-6.24064e-07
-1.19574e-08
-1.65495e-06
-2.39784e-08
-1.66478e-06
-3.60077e-08
-1.66816e-06
-4.80477e-08
-1.67211e-06
-6.0105e-08
-1.67722e-06
-7.21872e-08
-1.68393e-06
-8.43019e-08
-1.69248e-06
-9.64558e-08
-1.70294e-06
-1.08654e-07
-1.71523e-06
-1.20902e-07
-1.72925e-06
-1.33203e-07
-1.74493e-06
-1.4556e-07
-1.76224e-06
-1.57976e-07
-1.78118e-06
-1.70455e-07
-1.80174e-06
-1.82996e-07
-1.82392e-06
-1.95601e-07
-1.84775e-06
-2.08271e-07
-1.87323e-06
-2.21003e-07
-1.90037e-06
-2.33797e-07
-1.92918e-06
-2.46649e-07
-1.95967e-06
-2.59556e-07
-1.99185e-06
-2.72512e-07
-2.02574e-06
-2.85512e-07
-2.06135e-06
-2.98563e-07
-2.09864e-06
-3.11649e-07
-2.13762e-06
-3.24744e-07
-2.17832e-06
-3.37834e-07
-2.22077e-06
-3.50908e-07
-2.26499e-06
-3.63951e-07
-2.31097e-06
-3.76943e-07
-2.35872e-06
-3.89865e-07
-2.40823e-06
-4.0269e-07
-2.45949e-06
-4.15392e-07
-2.5125e-06
-4.2794e-07
-2.56726e-06
-4.40303e-07
-2.62374e-06
-4.52443e-07
-2.68193e-06
-4.64322e-07
-2.7418e-06
-4.75897e-07
-2.80334e-06
-4.87122e-07
-2.8665e-06
-4.9795e-07
-2.93124e-06
-5.08326e-07
-2.99754e-06
-5.18197e-07
-3.06532e-06
-5.27504e-07
-3.13453e-06
-5.36185e-07
-3.20512e-06
-5.44178e-07
-3.27699e-06
-5.51417e-07
-3.35007e-06
-5.57834e-07
-3.42426e-06
-5.63362e-07
-3.49946e-06
-5.6793e-07
-3.57556e-06
-5.7147e-07
-3.65242e-06
-5.73912e-07
-3.72992e-06
-5.75191e-07
-3.8079e-06
-5.7524e-07
-3.88621e-06
-5.74e-07
-3.96467e-06
-5.71415e-07
-4.04311e-06
-5.67434e-07
-4.12133e-06
-5.62016e-07
-4.19913e-06
-5.55126e-07
-4.2763e-06
-5.46742e-07
-4.35263e-06
-5.36851e-07
-4.42789e-06
-5.25455e-07
-4.50184e-06
-5.1257e-07
-4.57426e-06
-4.98227e-07
-4.64491e-06
-4.82473e-07
-4.71357e-06
-4.65372e-07
-4.77999e-06
-4.47004e-07
-4.84398e-06
-4.27462e-07
-4.90531e-06
-4.06859e-07
-4.96379e-06
-3.85318e-07
-5.01926e-06
-3.62978e-07
-5.07156e-06
-3.39992e-07
-5.12057e-06
-3.16525e-07
-5.16624e-06
-2.9276e-07
-5.20851e-06
-2.6893e-07
-5.24743e-06
-2.45205e-07
-5.28315e-06
-2.21487e-07
-5.3158e-06
-1.97765e-07
-5.34516e-06
-1.74176e-07
-5.37108e-06
-1.50859e-07
-5.39369e-06
-1.27876e-07
-5.41316e-06
-1.05162e-07
-5.42971e-06
-8.24972e-08
-5.44367e-06
-5.95228e-08
-5.45551e-06
-3.58594e-08
-5.46564e-06
-1.12104e-08
-5.47424e-06
1.46703e-08
-5.48127e-06
4.21041e-08
-5.48651e-06
7.15345e-08
-5.48972e-06
1.03496e-07
-5.49067e-06
1.38576e-07
-5.48908e-06
1.77422e-07
-5.48469e-06
2.20743e-07
-5.47716e-06
2.69165e-07
-5.46579e-06
3.23385e-07
-5.44972e-06
3.84163e-07
-5.42801e-06
4.52284e-07
-5.398e-06
5.28768e-07
-5.36186e-06
6.11951e-07
-5.33058e-06
7.00066e-07
-5.35922e-06
8.10775e-07
-5.4799e-06
-2.91563e-07
-1.31602e-05
-5.46653e-07
-1.0528e-05
-1.85055e-06
-7.16446e-06
-2.58533e-06
-3.98247e-06
-3.39737e-06
-4.87738e-06
-3.9382e-06
-3.18304e-06
-4.38334e-06
-3.0006e-06
-4.68885e-06
-1.88596e-06
-4.87477e-06
-1.32446e-06
-5.41247e-07
-1.35067e-08
-1.64144e-06
-2.70875e-08
-1.6512e-06
-4.06814e-08
-1.65457e-06
-5.42895e-08
-1.6585e-06
-6.79176e-08
-1.66359e-06
-8.15735e-08
-1.67027e-06
-9.52653e-08
-1.67879e-06
-1.09001e-07
-1.6892e-06
-1.22787e-07
-1.70144e-06
-1.36629e-07
-1.7154e-06
-1.50532e-07
-1.73103e-06
-1.64499e-07
-1.74828e-06
-1.78536e-07
-1.76714e-06
-1.92643e-07
-1.78763e-06
-2.06824e-07
-1.80974e-06
-2.21079e-07
-1.8335e-06
-2.35409e-07
-1.8589e-06
-2.49813e-07
-1.88596e-06
-2.64289e-07
-1.9147e-06
-2.78834e-07
-1.94512e-06
-2.93445e-07
-1.97724e-06
-3.08116e-07
-2.01107e-06
-3.22846e-07
-2.04662e-06
-3.37631e-07
-2.08386e-06
-3.52452e-07
-2.1228e-06
-3.67283e-07
-2.16349e-06
-3.82113e-07
-2.20594e-06
-3.9693e-07
-2.25017e-06
-4.11717e-07
-2.29619e-06
-4.26452e-07
-2.34398e-06
-4.41112e-07
-2.39357e-06
-4.5567e-07
-2.44493e-06
-4.70094e-07
-2.49808e-06
-4.84352e-07
-2.553e-06
-4.98407e-07
-2.60969e-06
-5.12216e-07
-2.66812e-06
-5.25738e-07
-2.72828e-06
-5.38923e-07
-2.79015e-06
-5.51721e-07
-2.8537e-06
-5.64075e-07
-2.91889e-06
-5.75927e-07
-2.98568e-06
-5.87213e-07
-3.05403e-06
-5.97868e-07
-3.12388e-06
-6.07822e-07
-3.19516e-06
-6.17002e-07
-3.26781e-06
-6.25334e-07
-3.34174e-06
-6.3274e-07
-3.41686e-06
-6.3914e-07
-3.49306e-06
-6.44456e-07
-3.57024e-06
-6.48606e-07
-3.64827e-06
-6.51511e-07
-3.72701e-06
-6.53093e-07
-3.80632e-06
-6.53276e-07
-3.88603e-06
-6.51988e-07
-3.96596e-06
-6.49164e-07
-4.04593e-06
-6.44743e-07
-4.12575e-06
-6.38676e-07
-4.2052e-06
-6.30921e-07
-4.28406e-06
-6.2145e-07
-4.3621e-06
-6.10245e-07
-4.43909e-06
-5.97308e-07
-4.51478e-06
-5.82653e-07
-4.58891e-06
-5.66314e-07
-4.66125e-06
-5.48344e-07
-4.73153e-06
-5.28815e-07
-4.79952e-06
-5.07818e-07
-4.86497e-06
-4.85461e-07
-4.92766e-06
-4.61873e-07
-4.98738e-06
-4.37198e-07
-5.04393e-06
-4.11595e-07
-5.09716e-06
-3.85235e-07
-5.14693e-06
-3.58305e-07
-5.19317e-06
-3.31005e-07
-5.23581e-06
-3.03563e-07
-5.27487e-06
-2.76306e-07
-5.3104e-06
-2.49492e-07
-5.34262e-06
-2.23065e-07
-5.37158e-06
-1.96952e-07
-5.39719e-06
-1.71229e-07
-5.41942e-06
-1.45905e-07
-5.43849e-06
-1.20821e-07
-5.45479e-06
-9.56941e-08
-5.4688e-06
-7.02118e-08
-5.48099e-06
-4.41188e-08
-5.49173e-06
-1.72147e-08
-5.50114e-06
1.07613e-08
-5.50924e-06
4.02289e-08
-5.51598e-06
7.17536e-08
-5.52125e-06
1.0599e-07
-5.5249e-06
1.43661e-07
-5.52675e-06
1.85584e-07
-5.52661e-06
2.32564e-07
-5.52414e-06
2.85444e-07
-5.51867e-06
3.45151e-07
-5.50943e-06
4.12666e-07
-5.49553e-06
4.89016e-07
-5.47435e-06
5.75484e-07
-5.44832e-06
6.71045e-07
-5.42614e-06
7.73764e-07
-5.46194e-06
9.0012e-07
-5.60625e-06
7.1104e-08
-1.23312e-05
-2.14404e-07
-1.02425e-05
-1.28196e-06
-6.09691e-06
-1.91983e-06
-3.3446e-06
-2.66962e-06
-4.12759e-06
-3.17208e-06
-2.68058e-06
-3.59999e-06
-2.57269e-06
-3.88988e-06
-1.59606e-06
-4.07113e-06
-1.14321e-06
-4.62398e-07
-1.5051e-08
-1.62639e-06
-3.01859e-08
-1.63606e-06
-4.53372e-08
-1.63942e-06
-6.0506e-08
-1.64334e-06
-7.56979e-08
-1.6484e-06
-9.09208e-08
-1.65505e-06
-1.06184e-07
-1.66353e-06
-1.21496e-07
-1.67389e-06
-1.36865e-07
-1.68607e-06
-1.52297e-07
-1.69997e-06
-1.67798e-07
-1.71553e-06
-1.83374e-07
-1.7327e-06
-1.99027e-07
-1.75149e-06
-2.14762e-07
-1.77189e-06
-2.30582e-07
-1.79392e-06
-2.46486e-07
-1.81759e-06
-2.62478e-07
-1.84291e-06
-2.78555e-07
-1.86989e-06
-2.94716e-07
-1.89854e-06
-3.10959e-07
-1.92888e-06
-3.2728e-07
-1.96092e-06
-3.43672e-07
-1.99468e-06
-3.60139e-07
-2.03015e-06
-3.76663e-07
-2.06733e-06
-3.93227e-07
-2.10624e-06
-4.09808e-07
-2.14691e-06
-4.26396e-07
-2.18935e-06
-4.42977e-07
-2.23359e-06
-4.5953e-07
-2.27963e-06
-4.76033e-07
-2.32748e-06
-4.92461e-07
-2.37714e-06
-5.08782e-07
-2.42861e-06
-5.24964e-07
-2.4819e-06
-5.40969e-07
-2.537e-06
-5.56756e-07
-2.5939e-06
-5.72281e-07
-2.65259e-06
-5.87494e-07
-2.71307e-06
-6.02341e-07
-2.7753e-06
-6.16766e-07
-2.83928e-06
-6.30706e-07
-2.90495e-06
-6.44096e-07
-2.97229e-06
-6.56864e-07
-3.04126e-06
-6.68937e-07
-3.11181e-06
-6.80236e-07
-3.18386e-06
-6.90679e-07
-3.25737e-06
-7.00181e-07
-3.33224e-06
-7.08655e-07
-3.40838e-06
-7.16009e-07
-3.48571e-06
-7.22153e-07
-3.5641e-06
-7.26994e-07
-3.64343e-06
-7.30441e-07
-3.72357e-06
-7.32402e-07
-3.80436e-06
-7.3279e-07
-3.88564e-06
-7.31523e-07
-3.96723e-06
-7.2852e-07
-4.04893e-06
-7.23714e-07
-4.13056e-06
-7.17042e-07
-4.21187e-06
-7.08454e-07
-4.29265e-06
-6.97915e-07
-4.37264e-06
-6.85403e-07
-4.4516e-06
-6.70914e-07
-4.52926e-06
-6.54464e-07
-4.60536e-06
-6.36088e-07
-4.67962e-06
-6.15845e-07
-4.75178e-06
-5.93814e-07
-4.82155e-06
-5.70101e-07
-4.88869e-06
-5.4483e-07
-4.95293e-06
-5.18152e-07
-5.01406e-06
-4.90234e-07
-5.07185e-06
-4.61265e-07
-5.12613e-06
-4.31448e-07
-5.17675e-06
-4.00998e-07
-5.22361e-06
-3.70145e-07
-5.26666e-06
-3.39129e-07
-5.30588e-06
-3.08227e-07
-5.34131e-06
-2.77829e-07
-5.37302e-06
-2.48202e-07
-5.40121e-06
-2.19301e-07
-5.42609e-06
-1.90994e-07
-5.44772e-06
-1.63153e-07
-5.46633e-06
-1.35574e-07
-5.48237e-06
-1.08023e-07
-5.49635e-06
-8.03122e-08
-5.5087e-06
-5.229e-08
-5.51975e-06
-2.37469e-08
-5.52969e-06
5.69399e-09
-5.53868e-06
3.65483e-08
-5.54683e-06
6.94901e-08
-5.55419e-06
1.05279e-07
-5.56069e-06
1.44763e-07
-5.56624e-06
1.88896e-07
-5.57074e-06
2.38636e-07
-5.57388e-06
2.9506e-07
-5.57509e-06
3.59319e-07
-5.57369e-06
4.32621e-07
-5.56883e-06
5.16227e-07
-5.55796e-06
6.11633e-07
-5.54373e-06
7.18315e-07
-5.53283e-06
8.34258e-07
-5.57788e-06
9.74828e-07
-5.74682e-06
3.41281e-07
-1.16976e-05
7.90991e-08
-9.98028e-06
-8.28793e-07
-5.18903e-06
-1.38101e-06
-2.79239e-06
-2.07427e-06
-3.43433e-06
-2.53502e-06
-2.21983e-06
-2.94e-06
-2.16772e-06
-3.21093e-06
-1.32513e-06
-3.38458e-06
-9.69558e-07
-3.89793e-07
-1.65886e-08
-1.6098e-06
-3.32704e-08
-1.61938e-06
-4.99716e-08
-1.62272e-06
-6.66931e-08
-1.62661e-06
-8.34408e-08
-1.63166e-06
-1.00223e-07
-1.63827e-06
-1.17051e-07
-1.6467e-06
-1.33933e-07
-1.65701e-06
-1.50879e-07
-1.66913e-06
-1.67897e-07
-1.68296e-06
-1.84992e-07
-1.69843e-06
-2.02171e-07
-1.71552e-06
-2.19439e-07
-1.73422e-06
-2.36799e-07
-1.75453e-06
-2.54255e-07
-1.77647e-06
-2.71809e-07
-1.80004e-06
-2.89462e-07
-1.82526e-06
-3.07214e-07
-1.85214e-06
-3.25064e-07
-1.88069e-06
-3.43009e-07
-1.91094e-06
-3.61045e-07
-1.94289e-06
-3.79168e-07
-1.97656e-06
-3.97374e-07
-2.01195e-06
-4.15646e-07
-2.04906e-06
-4.33962e-07
-2.08792e-06
-4.5231e-07
-2.12856e-06
-4.70676e-07
-2.17099e-06
-4.89042e-07
-2.21523e-06
-5.07387e-07
-2.26129e-06
-5.25687e-07
-2.30918e-06
-5.43913e-07
-2.35891e-06
-5.62033e-07
-2.41049e-06
-5.80011e-07
-2.46392e-06
-5.97805e-07
-2.5192e-06
-6.15371e-07
-2.57633e-06
-6.32659e-07
-2.63531e-06
-6.49617e-07
-2.69611e-06
-6.66185e-07