/*--------------------------------*- C++ -*----------------------------------*\
| =========                 |                                                 |
| \\      /  F ield         | OpenFOAM: The Open Source CFD Toolbox           |
|  \\    /   O peration     | Version:  v2106                                 |
|   \\  /    A nd           | Website:  www.openfoam.com                      |
|    \\/     M anipulation  |                                                 |
\*---------------------------------------------------------------------------*/
FoamFile
{
    version     2.0;
    format      ascii;
    arch        "LSB;label=32;scalar=64";
    class       volVectorField;
    location    "0.7";
    object      U;
}
// * * * * * * * * * * * * * * * * * * * * * * * * * * * * * * * * * * * * * //

dimensions      [0 1 -1 0 0 0 0];

internalField   nonuniform List<vector> 
29678
(
(-0.0142371 1.79946e-24 -7.57374e-06)
(-0.0143216 1.87616e-23 -2.42677e-05)
(-0.0143493 -9.86888e-24 -4.236e-05)
(-0.0143822 1.20105e-20 -6.00001e-05)
(-0.0144258 7.78986e-20 -7.74191e-05)
(-0.0144834 7.90538e-20 -9.48806e-05)
(-0.0145565 8.46368e-20 -0.000112484)
(-0.0146453 7.59771e-20 -0.000130211)
(-0.0147495 -1.46341e-19 -0.000148026)
(-0.0148681 6.18805e-20 -0.000165908)
(-0.0150007 -1.48659e-19 -0.000183856)
(-0.015147 6.87718e-20 -0.000201882)
(-0.0153069 -1.5198e-19 -0.000219999)
(-0.0154805 6.49079e-20 -0.000238219)
(-0.0156678 -1.54259e-19 -0.000256555)
(-0.0158688 6.91107e-20 -0.000275012)
(-0.0160835 -1.65563e-19 -0.000293596)
(-0.016312 -1.77535e-19 -0.000312311)
(-0.0165544 7.38011e-20 -0.000331157)
(-0.0168106 -1.7656e-19 -0.000350133)
(-0.0170807 -1.8741e-19 -0.000369234)
(-0.0173648 -1.90301e-19 -0.000388452)
(-0.0176627 -8.04723e-21 -0.000407776)
(-0.0179746 4.18167e-21 -0.000427192)
(-0.0183003 -9.61255e-20 -0.000446688)
(-0.0186398 -2.64633e-20 -0.000466254)
(-0.018993 -9.24353e-20 -0.0004859)
(-0.0193599 1.08347e-19 -0.000505605)
(-0.0197408 -1.94903e-19 -0.000525226)
(-0.0201356 -2.45825e-19 -0.000544643)
(-0.0205442 -2.3365e-19 -0.000563511)
(-0.0209666 -1.00044e-20 -0.000581713)
(-0.0214028 -2.17426e-20 -0.000599244)
(-0.0218525 8.58944e-20 -0.000616079)
(-0.0223155 1.19244e-19 -0.000632232)
(-0.0227916 9.78161e-20 -0.000647725)
(-0.0232804 1.19633e-19 -0.000662578)
(-0.0237817 1.17123e-19 -0.000676808)
(-0.024295 1.01505e-19 -0.000690436)
(-0.0248199 1.31e-19 -0.00070348)
(-0.0253557 1.07433e-19 -0.000715918)
(-0.025902 1.37128e-19 -0.000727747)
(-0.0264583 1.11726e-19 -0.000738946)
(-0.0270238 1.56668e-19 -0.000749514)
(-0.0275979 1.07508e-19 -0.000759427)
(-0.0281797 -1.44335e-19 -0.000768643)
(-0.0287684 1.43892e-19 -0.000777107)
(-0.029363 1.1717e-19 -0.000784759)
(-0.0299626 1.75747e-19 -0.000791533)
(-0.0305661 1.3038e-19 -0.000797357)
(-0.0311725 1.71312e-19 -0.000802158)
(-0.0317804 1.85291e-19 -0.000805858)
(-0.0323888 1.89363e-19 -0.000808381)
(-0.0329963 1.28813e-19 -0.000809648)
(-0.0336016 1.04048e-20 -0.000809579)
(-0.0342034 1.7257e-19 -0.000808097)
(-0.0348001 1.26331e-19 -0.000805126)
(-0.0353905 2.59544e-19 -0.000800594)
(-0.0359729 1.56592e-19 -0.000794432)
(-0.0365459 1.83014e-19 -0.000786561)
(-0.0371079 1.81492e-19 -0.000776858)
(-0.0376571 2.05874e-19 -0.00076512)
(-0.0381926 1.18942e-19 -0.000751208)
(-0.038713 1.69173e-19 -0.000734867)
(-0.0392166 1.99718e-19 -0.000715939)
(-0.0397019 2.20316e-19 -0.000694085)
(-0.0401677 2.03155e-20 -0.000668932)
(-0.0406126 1.57672e-19 -0.000640085)
(-0.0410355 -4.23955e-19 -0.000607286)
(-0.0414355 2.09265e-19 -0.000570135)
(-0.0418122 -2.14398e-19 -0.000528411)
(-0.0421657 1.83503e-19 -0.000483199)
(-0.042496 -2.20809e-19 -0.000434922)
(-0.0428032 1.78714e-19 -0.000384021)
(-0.043087 -2.13298e-19 -0.00033061)
(-0.0433469 -2.24191e-19 -0.000274844)
(-0.0435829 1.76999e-19 -0.000216883)
(-0.0437948 -1.8359e-19 -0.000156891)
(-0.0439826 2.04096e-19 -9.50432e-05)
(-0.0441463 -4.70323e-19 -3.15449e-05)
(-0.044286 1.39032e-19 3.33433e-05)
(-0.0444018 -1.85654e-19 9.92934e-05)
(-0.0444938 1.83498e-19 0.000165848)
(-0.0445621 -2.79295e-19 0.000232392)
(-0.0446059 -1.71495e-19 0.000298162)
(-0.0446236 1.9838e-19 0.000362286)
(-0.0446114 -2.61979e-19 0.000423982)
(-0.0445648 1.71105e-19 0.000482979)
(-0.0444799 -1.90223e-19 0.00053971)
(-0.0443542 2.09349e-19 0.000594955)
(-0.044184 -4.63167e-19 0.00064988)
(-0.0439636 -8.13278e-21 0.000705846)
(-0.0436871 2.0882e-19 0.000764554)
(-0.043347 -4.33985e-19 0.000827773)
(-0.0429278 1.70693e-19 0.000897188)
(-0.0424078 -4.05377e-19 0.000981369)
(-0.0418597 1.42564e-19 0.00106577)
(-0.0415867 -2.27089e-19 0.00121045)
(-0.0416911 5.60407e-19 0.00109534)
(-0.0572212 5.1198e-21 0.00129845)
(-0.526807 -1.61455e-19 -0.0135197)
(-0.129916 -1.22171e-19 -0.211183)
(-0.0995692 -1.62627e-19 -0.0781149)
(-0.0496624 5.48057e-20 -0.156419)
(-0.0511263 -1.3148e-19 -0.0839893)
(-0.0522201 -1.11515e-19 -0.117986)
(-0.0508315 -1.27781e-19 -0.0986552)
(-0.0387583 3.81427e-19 -0.115943)
(-0.020932 8.44394e-20 -0.114379)
(0.00202526 -2.27383e-19 -0.10987)
(-0.0142095 8.63062e-24 -1.22315e-05)
(-0.014293 1.6284e-22 -3.69007e-05)
(-0.0143208 3.23206e-21 -6.18434e-05)
(-0.014354 7.27392e-20 -8.63784e-05)
(-0.0143976 3.48811e-21 -0.000111043)
(-0.0144549 3.87804e-22 -0.000136007)
(-0.0145277 2.25778e-21 -0.000161236)
(-0.0146164 6.6624e-20 -0.000186623)
(-0.0147204 -6.73861e-20 -0.000212101)
(-0.0148389 -6.22966e-21 -0.000237647)
(-0.0149714 -7.03306e-20 -0.00026327)
(-0.0151176 6.90785e-20 -0.00028899)
(-0.0152774 -6.78052e-20 -0.000314827)
(-0.0154509 -6.2781e-21 -0.000340796)
(-0.0156379 -7.40137e-20 -0.000366908)
(-0.0158387 6.94373e-20 -0.000393172)
(-0.0160532 -7.81966e-20 -0.000419591)
(-0.0162815 -7.42308e-20 -0.000446167)
(-0.0165237 1.49299e-19 -0.000472895)
(-0.0167797 -8.13075e-20 -0.00049977)
(-0.0170497 -7.75539e-20 -0.000526779)
(-0.0173336 -8.90065e-20 -0.000553904)
(-0.0176314 -1.66751e-21 -0.000581118)
(-0.0179431 -9.02618e-20 -0.000608388)
(-0.0182687 -1.15988e-20 -0.000635673)
(-0.0186081 -1.72164e-19 -0.000662951)
(-0.0189614 8.26366e-20 -0.000690268)
(-0.0193287 1.9705e-19 -0.000717218)
(-0.0197103 -9.76382e-20 -0.000743581)
(-0.0201058 -1.09694e-19 -0.000769271)
(-0.0205149 -1.12125e-19 -0.000794173)
(-0.0209381 -4.84085e-21 -0.000818319)
(-0.0213752 -2.02918e-19 -0.000841745)
(-0.0218258 -9.26798e-21 -0.00086447)
(-0.0222899 1.12969e-19 -0.000886506)
(-0.0227669 4.08705e-21 -0.000907854)
(-0.0232568 1.40855e-20 -0.000928509)
(-0.023759 4.16804e-21 -0.000948459)
(-0.0242733 -5.3207e-21 -0.000967692)
(-0.0247991 3.47115e-20 -0.000986203)
(-0.025336 6.23149e-21 -0.00100395)
(-0.0258834 1.50416e-19 -0.001021)
(-0.0264407 6.53858e-21 -0.00103727)
(-0.0270073 7.23885e-20 -0.00105267)
(-0.0275826 -1.2055e-20 -0.0010671)
(-0.0281656 -2.99229e-19 -0.00108045)
(-0.0287556 5.77541e-20 -0.00109258)
(-0.0293516 8.34503e-21 -0.00110339)
(-0.0299527 1.97624e-19 -0.00111272)
(-0.0305579 7.7661e-21 -0.00112045)
(-0.031166 7.73125e-20 -0.00112646)
(-0.0317758 2.12396e-19 -0.00113062)
(-0.0323862 2.11075e-19 -0.00113281)
(-0.0329959 -1.3007e-19 -0.00113292)
(-0.0336035 -1.07192e-21 -0.00113084)
(-0.0342076 2.00003e-19 -0.00112649)
(-0.0348068 -1.60169e-19 -0.00111979)
(-0.0353997 1.25206e-19 -0.00111069)
(-0.0359848 1.02582e-20 -0.00109915)
(-0.0365606 2.03256e-19 -0.00108519)
(-0.0371256 7.95939e-21 -0.00106876)
(-0.0376784 7.31224e-20 -0.00104983)
(-0.0382175 5.06646e-21 -0.00102858)
(-0.0387418 -5.96557e-21 -0.00100456)
(-0.0392496 4.25487e-20 -0.000977719)
(-0.0397396 2.17512e-19 -0.000947866)
(-0.0402107 1.11498e-20 -0.000914799)
(-0.0406613 -2.43701e-20 -0.000878289)
(-0.04109 -3.96124e-19 -0.000838074)
(-0.0414956 -1.86787e-20 -0.000793804)
(-0.0418786 4.24167e-22 -0.000745048)
(-0.0422382 -1.52008e-20 -0.00069188)
(-0.0425731 -3.82152e-19 -0.000634671)
(-0.0428842 -2.15644e-20 -0.000575141)
(-0.0431716 -1.68978e-20 -0.000513343)
(-0.0434349 -3.64558e-19 -0.000449526)
(-0.0436739 -1.97954e-20 -0.000383966)
(-0.0438886 3.75365e-23 -0.000316895)
(-0.0440789 -2.07295e-20 -0.000248514)
(-0.0442447 -4.17391e-19 -0.000179007)
(-0.0443861 -1.97943e-20 -0.000108571)
(-0.0445031 1.69688e-22 -3.74366e-05)
(-0.0445954 -2.15118e-20 3.40192e-05)
(-0.0446629 -4.59872e-19 0.000105343)
(-0.0447048 -1.8412e-20 0.000176035)
(-0.0447191 -2.22082e-20 0.000245603)
(-0.0447029 -4.45409e-19 0.000313917)
(-0.0446524 -1.7871e-20 0.000381533)
(-0.0445647 4.34685e-22 0.000449681)
(-0.0444378 -2.02966e-20 0.000519817)
(-0.0442685 -4.19674e-19 0.000593684)
(-0.0440517 -2.54132e-20 0.000673381)
(-0.0437822 -1.65875e-20 0.000761848)
(-0.043455 -3.65963e-19 0.000862117)
(-0.04306 -3.93742e-20 0.000982882)
(-0.0425802 -4.2838e-19 0.00114243)
(-0.042066 -4.78923e-20 0.00136709)
(-0.0417882 -4.21695e-19 0.00169705)
(-0.0419849 -1.74885e-20 0.00205968)
(-0.0443214 1.0207e-19 0.00292147)
(-0.328803 -6.45656e-20 -0.00961168)
(-0.107437 -1.9345e-19 -0.229199)
(-0.124322 -2.26261e-19 -0.064628)
(-0.0692074 -1.99189e-20 -0.14493)
(-0.0695748 1.79717e-20 -0.0716706)
(-0.0511501 -1.10983e-19 -0.107595)
(-0.0441726 -2.56042e-20 -0.0867608)
(-0.0316022 5.30581e-20 -0.104187)
(-0.019445 -3.95723e-19 -0.101712)
(-0.00624759 1.1258e-19 -0.0987459)
(-0.0141795 -1.68797e-24 -1.78646e-05)
(-0.0142636 -1.11204e-23 -5.38001e-05)
(-0.0142918 2.76853e-24 -8.97186e-05)
(-0.014325 -1.55579e-21 -0.000124924)
(-0.0143684 -7.00761e-20 -0.000160347)
(-0.0144255 -7.14073e-20 -0.000196162)
(-0.0144982 -7.71119e-20 -0.000232306)
(-0.0145868 -6.62392e-20 -0.000268651)
(-0.0146907 1.31791e-19 -0.00030513)
(-0.0148091 -5.79074e-20 -0.000341725)
(-0.0149415 1.34005e-19 -0.000378445)
(-0.0150875 -5.93879e-20 -0.000415308)
(-0.0152472 1.41027e-19 -0.000452335)
(-0.0154205 -6.05316e-20 -0.00048954)
(-0.0156074 1.35673e-19 -0.000526935)
(-0.015808 -6.00424e-20 -0.000564526)
(-0.0160223 1.50065e-19 -0.000602317)
(-0.0162505 1.57787e-19 -0.000640306)
(-0.0164925 -6.33178e-20 -0.000678485)
(-0.0167484 1.53777e-19 -0.000716842)
(-0.0170182 1.73154e-19 -0.000755357)
(-0.017302 1.56552e-19 -0.000794)
(-0.0175997 6.25709e-21 -0.000832726)
(-0.0179115 -2.04188e-20 -0.000871469)
(-0.0182372 8.13885e-20 -0.000910154)
(-0.0185768 3.40743e-20 -0.000948854)
(-0.0189303 8.66823e-20 -0.000987121)
(-0.0192977 -8.43555e-20 -0.00102485)
(-0.0196793 1.68119e-19 -0.00106206)
(-0.0200754 2.2342e-19 -0.0010987)
(-0.0204857 2.26355e-19 -0.00113507)
(-0.0209098 2.98597e-21 -0.00117121)
(-0.0213476 -1.27532e-20 -0.00120705)
(-0.021799 -1.02175e-19 -0.00124253)
(-0.0222637 -1.12173e-19 -0.00127758)
(-0.0227414 -1.19165e-19 -0.0013121)
(-0.0232319 -1.07906e-19 -0.00134598)
(-0.0237349 -1.31044e-19 -0.00137911)
(-0.0242499 -1.38055e-19 -0.00141138)
(-0.0247765 -1.21058e-19 -0.00144264)
(-0.0253142 -1.30116e-19 -0.00147275)
(-0.0258625 -1.20689e-19 -0.0015015)
(-0.0264209 -1.4873e-19 -0.00152873)
(-0.0269887 -1.10754e-19 -0.00155429)
(-0.0275653 -1.33369e-19 -0.00157801)
(-0.0281498 1.00071e-19 -0.00159974)
(-0.0287415 -1.08795e-19 -0.00161929)
(-0.0293393 -1.41852e-19 -0.00163647)
(-0.0299425 -1.44189e-19 -0.00165109)
(-0.0305498 -1.73667e-19 -0.00166296)
(-0.0311602 -1.43131e-19 -0.00167187)
(-0.0317725 -1.36627e-19 -0.00167765)
(-0.0323855 -1.55065e-19 -0.0016801)
(-0.0329979 -1.67868e-19 -0.00167906)
(-0.0336084 -5.82468e-21 -0.00167435)
(-0.0342154 -1.50415e-19 -0.00166584)
(-0.0348177 -1.74073e-19 -0.0016534)
(-0.0354137 -1.52446e-19 -0.00163692)
(-0.0360019 -1.8904e-19 -0.00161632)
(-0.0365808 -1.80134e-19 -0.00159153)
(-0.0371488 -2.41234e-19 -0.00156247)
(-0.0377046 -1.919e-19 -0.00152908)
(-0.0382467 -1.44784e-19 -0.00149138)
(-0.0387739 -2.24413e-19 -0.00144957)
(-0.0392848 -1.85345e-19 -0.00140386)
(-0.0397779 -1.72491e-19 -0.00135443)
(-0.040252 -1.38132e-20 -0.00130149)
(-0.0407059 -1.82892e-19 -0.00124527)
(-0.0411385 3.76766e-19 -0.00118583)
(-0.041549 -2.16786e-19 -0.00112343)
(-0.041936 2.07175e-19 -0.00105829)
(-0.0422978 -1.68722e-19 -0.000989627)
(-0.0426355 2.10098e-19 -0.000916952)
(-0.0429492 -1.60076e-19 -0.000840663)
(-0.0432385 1.88996e-19 -0.000762521)
(-0.0435034 1.93253e-19 -0.000682503)
(-0.0437438 -1.58142e-19 -0.000601004)
(-0.0439595 1.66189e-19 -0.000518344)
(-0.0441506 -1.90276e-19 -0.000434755)
(-0.0443171 3.85587e-19 -0.000350403)
(-0.0444591 -1.23491e-19 -0.000265426)
(-0.0445764 1.6775e-19 -0.00017995)
(-0.0446688 -1.67261e-19 -9.41729e-05)
(-0.044736 2.18666e-19 -8.29039e-06)
(-0.0447775 1.50162e-19 7.7753e-05)
(-0.0447917 -1.80869e-19 0.000164501)
(-0.0447762 2.48566e-19 0.000253242)
(-0.0447281 -1.53039e-19 0.000345944)
(-0.0446447 1.72095e-19 0.000444881)
(-0.0445241 -1.92408e-19 0.000552157)
(-0.0443633 4.32749e-19 0.000669728)
(-0.0441578 3.18062e-21 0.000799802)
(-0.0439031 -1.9995e-19 0.000944718)
(-0.0435947 3.90415e-19 0.00110739)
(-0.0432267 -2.19295e-19 0.00129425)
(-0.0427863 3.5044e-19 0.00149827)
(-0.0423232 -1.83935e-19 0.00173416)
(-0.0421146 1.74334e-19 0.00195252)
(-0.0424324 -1.60586e-19 0.00196654)
(-0.0435803 8.14904e-21 0.00232102)
(-0.243769 1.70527e-19 -0.000841786)
(-0.105656 4.83925e-21 -0.133982)
(-0.138089 3.45306e-20 -0.0380827)
(-0.0685753 -3.29782e-20 -0.112996)
(-0.0717039 1.879e-19 -0.0609887)
(-0.0494504 4.98356e-21 -0.0963121)
(-0.0430732 -1.00575e-20 -0.076363)
(-0.0299363 -2.11448e-19 -0.0919447)
(-0.0187445 9.70887e-20 -0.0874451)
(-0.00591323 1.81778e-19 -0.0885137)
(-0.0141375 -1.2814e-23 -2.39783e-05)
(-0.0142218 -2.5813e-22 -7.24196e-05)
(-0.0142503 -5.15374e-21 -0.000120944)
(-0.0142836 -6.81262e-20 -0.000168439)
(-0.0143268 6.82601e-20 -0.000216132)
(-0.0143836 6.9309e-20 -0.00026424)
(-0.0144561 7.02722e-20 -0.000312702)
(-0.0145445 -1.05805e-21 -0.000361401)
(-0.0146482 -6.43384e-20 -0.000410285)
(-0.0147665 6.42376e-20 -0.000459344)
(-0.0148987 -6.3017e-20 -0.000508589)
(-0.0150446 -7.13472e-21 -0.000558037)
(-0.015204 -6.24144e-20 -0.000607706)
(-0.0153771 6.80167e-20 -0.00065761)
(-0.0155638 -7.04678e-20 -0.000707758)
(-0.0157642 -7.45446e-21 -0.000758159)
(-0.0159783 -6.51855e-20 -0.000808812)
(-0.0162062 -8.49771e-20 -0.000859715)
(-0.016448 -8.80296e-20 -0.000910857)
(-0.0167037 -6.93602e-20 -0.000962221)
(-0.0169734 -7.84474e-20 -0.00101378)
(-0.0172571 -5.78796e-20 -0.0010655)
(-0.0175548 1.49324e-21 -0.00111732)
(-0.0178666 7.17591e-20 -0.00116915)
(-0.0181924 -8.21641e-20 -0.00122102)
(-0.018532 1.65333e-19 -0.00127281)
(-0.0188855 -2.06933e-19 -0.00132421)
(-0.0192536 -1.00808e-19 -0.00137568)
(-0.0196359 -8.85888e-20 -0.00142715)
(-0.0200324 -1.07511e-19 -0.00147849)
(-0.0204429 -1.03743e-19 -0.00152957)
(-0.0208672 5.55201e-21 -0.00158027)
(-0.0213053 1.99022e-19 -0.0016305)
(-0.021757 9.44727e-20 -0.00168019)
(-0.0222222 4.60113e-21 -0.00172923)
(-0.0227006 1.13513e-19 -0.00177749)
(-0.0231919 1.34095e-19 -0.00182482)
(-0.0236958 1.26227e-19 -0.00187108)
(-0.0242119 1.08261e-19 -0.00191607)
(-0.0247398 1.34402e-19 -0.00195962)
(-0.025279 1.22583e-19 -0.0020015)
(-0.0258291 5.043e-21 -0.00204148)
(-0.0263894 1.23078e-19 -0.00207933)
(-0.0269593 1.3515e-19 -0.00211482)
(-0.0275382 1.50598e-19 -0.00214769)
(-0.0281253 1.50175e-19 -0.00217772)
(-0.0287197 1.3504e-19 -0.00220463)
(-0.0293205 1.24865e-19 -0.00222818)
(-0.0299269 6.08499e-21 -0.00224809)
(-0.0305376 1.38414e-19 -0.00226409)
(-0.0311517 1.3563e-19 -0.00227592)
(-0.031768 9.93112e-22 -0.00228332)
(-0.0323851 1.88807e-20 -0.00228603)
(-0.0330018 3.14483e-19 -0.00228383)
(-0.0336167 2.29153e-21 -0.00227648)
(-0.0342285 9.02147e-21 -0.00226379)
(-0.0348355 3.46588e-19 -0.00224559)
(-0.0354364 2.10559e-19 -0.00222173)
(-0.0360296 1.52083e-19 -0.0021921)
(-0.0366135 8.43323e-21 -0.00215662)
(-0.0371867 1.69601e-19 -0.00211523)
(-0.0377475 1.95136e-19 -0.00206796)
(-0.0382946 1.90385e-19 -0.00201489)
(-0.0388265 1.81808e-19 -0.00195626)
(-0.0393417 1.98136e-19 -0.00189231)
(-0.0398389 1.16068e-20 -0.00182337)
(-0.0403168 1.74485e-20 -0.00174978)
(-0.040774 1.75035e-19 -0.00167191)
(-0.0412096 2.91032e-20 -0.00159007)
(-0.0416228 1.84084e-19 -0.00150459)
(-0.042013 -1.68027e-19 -0.00141576)
(-0.0423789 2.11069e-19 -0.00132433)
(-0.0427198 2.01185e-19 -0.00123101)
(-0.0430357 2.0164e-19 -0.00113352)
(-0.0433272 -1.83854e-19 -0.00103379)
(-0.0435936 1.91907e-19 -0.00093258)
(-0.0438351 2.15846e-19 -0.00083004)
(-0.0440517 -1.71108e-19 -0.000726569)
(-0.0442435 1.95741e-19 -0.000622435)
(-0.0444106 2.31445e-20 -0.000517794)
(-0.044553 2.24015e-19 -0.000412742)
(-0.0446707 -1.84335e-19 -0.000307326)
(-0.0447635 2.3357e-19 -0.000201539)
(-0.0448313 2.3566e-19 -9.5137e-05)
(-0.044874 -1.65228e-19 1.27056e-05)
(-0.0448912 2.06328e-19 0.000123842)
(-0.0448812 2.31212e-19 0.000240999)
(-0.0448411 1.84665e-19 0.000366995)
(-0.0447682 -1.77101e-19 0.000504459)
(-0.04466 1.96081e-19 0.000655518)
(-0.0445135 4.69155e-20 0.000821853)
(-0.0443241 1.38051e-20 0.00100509)
(-0.0440873 1.86239e-19 0.00120688)
(-0.0437987 4.52757e-20 0.0014294)
(-0.0434504 1.98574e-19 0.00167343)
(-0.0430243 3.42514e-20 0.00192319)
(-0.0425447 1.79171e-19 0.00221707)
(-0.0422443 2.33152e-19 0.00245624)
(-0.0424589 2.38145e-19 0.00251072)
(-0.0428018 4.49729e-20 0.00307185)
(-0.189944 1.42959e-19 0.00212851)
(-0.0974267 3.09999e-19 -0.0734852)
(-0.124985 -1.10792e-19 -0.0221079)
(-0.0652011 9.99167e-20 -0.0866782)
(-0.0710232 -2.14629e-21 -0.0484566)
(-0.0471055 -8.86023e-20 -0.0818372)
(-0.0409183 -1.65903e-19 -0.0648595)
(-0.0273634 2.67739e-19 -0.0798338)
(-0.0177175 1.37018e-19 -0.0753672)
(-0.00715462 -1.77043e-19 -0.077427)
(-0.0140829 -6.5329e-24 -3.02572e-05)
(-0.0141672 -1.23879e-22 -9.15489e-05)
(-0.014196 -2.2732e-21 -0.000153196)
(-0.0142292 -1.88593e-21 -0.0002136)
(-0.0142723 6.06447e-21 -0.000274194)
(-0.0143289 4.11136e-21 -0.000335211)
(-0.0144011 7.15459e-22 -0.000396591)
(-0.0144893 -4.0061e-21 -0.000458221)
(-0.0145928 3.50686e-21 -0.000520075)
(-0.0147109 2.02594e-21 -0.000582157)
(-0.0148428 -3.09568e-21 -0.000644485)
(-0.0149885 7.93733e-21 -0.000707078)
(-0.0151477 3.41639e-21 -0.000769953)
(-0.0153205 2.94596e-21 -0.000833124)
(-0.0155069 -1.68849e-21 -0.000896603)
(-0.015707 -3.13992e-22 -0.000960395)
(-0.0159209 -3.21223e-21 -0.0010245)
(-0.0161485 1.69274e-21 -0.00108891)
(-0.0163901 -6.89593e-21 -0.00115363)
(-0.0166455 -4.10464e-21 -0.00121861)
(-0.016915 3.95008e-21 -0.00128385)
(-0.0171985 -1.32656e-21 -0.0013493)
(-0.0174961 1.57132e-20 -0.00141489)
(-0.0178079 3.70119e-21 -0.00148058)
(-0.0181337 -9.43902e-22 -0.00154648)
(-0.0184733 -1.55843e-20 -0.00161222)
(-0.018827 -1.86334e-20 -0.00167817)
(-0.0191951 7.55598e-21 -0.00174422)
(-0.0195775 -2.25082e-20 -0.00181015)
(-0.0199741 -1.68325e-20 -0.00187587)
(-0.0203848 -1.56649e-20 -0.00194127)
(-0.0208096 2.09689e-20 -0.00200622)
(-0.0212482 1.95199e-20 -0.00207058)
(-0.0217007 -7.09049e-21 -0.00213421)
(-0.0221667 -5.38545e-21 -0.00219696)
(-0.0226461 4.39817e-21 -0.00225866)
(-0.0231385 1.12722e-20 -0.00231911)
(-0.0236438 9.32183e-21 -0.00237813)
(-0.0241615 -6.49558e-21 -0.00243547)
(-0.0246912 1.57051e-20 -0.0024909)
(-0.0252325 5.10496e-21 -0.00254416)
(-0.0257848 -1.65444e-21 -0.00259497)
(-0.0263477 5.37678e-21 -0.00264303)
(-0.0269205 1.09829e-20 -0.00268805)
(-0.0275025 8.85699e-21 -0.00272972)
(-0.028093 3.71904e-21 -0.00276772)
(-0.0286911 1.97322e-20 -0.00280173)
(-0.029296 7.5582e-21 -0.00283141)
(-0.0299066 1.58084e-20 -0.00285642)
(-0.030522 6.36853e-21 -0.00287642)
(-0.031141 1.64644e-21 -0.00289108)
(-0.0317625 3.35151e-21 -0.00290006)
(-0.0323851 2.25611e-20 -0.00290305)
(-0.0330075 1.33386e-20 -0.00289975)
(-0.0336284 -2.43665e-20 -0.00288988)
(-0.0342464 1.8189e-20 -0.00287319)
(-0.0348598 1.5764e-20 -0.00284945)
(-0.0354672 3.26308e-20 -0.0028185)
(-0.036067 8.41379e-21 -0.0027802)
(-0.0366576 2.73905e-20 -0.00273446)
(-0.0372374 7.46403e-21 -0.00268125)
(-0.0378049 -8.41612e-21 -0.00262062)
(-0.0383584 9.43858e-21 -0.00255269)
(-0.0388964 -7.07642e-21 -0.00247771)
(-0.0394175 6.35789e-21 -0.00239597)
(-0.0399202 2.76793e-20 -0.00230786)
(-0.0404031 1.4435e-20 -0.00221383)
(-0.0408649 -1.57628e-23 -0.00211437)
(-0.0413046 3.19983e-21 -0.00201003)
(-0.0417214 6.57274e-21 -0.00190141)
(-0.0421144 -6.56622e-21 -0.0017891)
(-0.0424833 1.64325e-20 -0.00167345)
(-0.042827 -3.13285e-20 -0.00155584)
(-0.0431457 2.03682e-21 -0.00143591)
(-0.0434391 -1.19607e-20 -0.00131211)
(-0.043707 7.0884e-20 -0.0011871)
(-0.0439495 5.10242e-21 -0.00106099)
(-0.0441668 -8.14502e-21 -0.00093419)
(-0.0443591 1.15118e-20 -0.000807054)
(-0.0445265 3.88196e-20 -0.000679776)
(-0.0446691 8.89844e-21 -0.000552482)
(-0.0447871 -9.12293e-21 -0.000425186)
(-0.0448805 1.25255e-20 -0.000297653)
(-0.0449498 5.59356e-20 -0.000169018)
(-0.044996 -6.80831e-21 -3.7442e-05)
(-0.0450195 7.972e-21 0.000100051)
(-0.0450188 -2.76746e-20 0.000246795)
(-0.0449908 1.24321e-20 0.000405583)
(-0.0449323 -9.72976e-21 0.000578884)
(-0.0448403 8.83109e-21 0.000768819)
(-0.0447114 2.27935e-21 0.000977207)
(-0.0445415 -1.20739e-20 0.00120563)
(-0.0443256 1.30271e-20 0.00145683)
(-0.0440581 -2.32316e-20 0.00173267)
(-0.04373 9.55747e-21 0.0020351)
(-0.0433208 2.15968e-20 0.00234644)
(-0.0428489 -8.46344e-21 0.00272784)
(-0.0425034 -4.80356e-20 0.00304839)
(-0.0426924 1.28148e-20 0.00323691)
(-0.0431232 2.47498e-19 0.00398337)
(-0.159034 1.56309e-19 0.00384758)
(-0.0950283 2.70111e-19 -0.0432162)
(-0.107837 -5.05122e-20 -0.0115824)
(-0.0573436 -5.03515e-20 -0.0656296)
(-0.0650522 9.55082e-20 -0.0378783)
(-0.0426832 -6.23525e-20 -0.0684495)
(-0.0377076 1.01635e-20 -0.0545939)
(-0.0247329 8.30316e-20 -0.0686906)
(-0.0162893 -2.51357e-19 -0.0646129)
(-0.00665227 8.05643e-20 -0.0673337)
(-0.0140155 -6.89596e-24 -3.66248e-05)
(-0.0140996 -1.48261e-22 -0.000110899)
(-0.0141285 -2.65678e-21 -0.000185787)
(-0.0141618 2.61432e-21 -0.000259255)
(-0.0142048 7.07191e-22 -0.000332937)
(-0.0142612 6.32714e-22 -0.000407073)
(-0.0143331 -7.16515e-21 -0.000481587)
(-0.014421 5.1597e-21 -0.000556363)
(-0.0145243 7.40629e-20 -0.000631392)
(-0.0146421 3.3958e-21 -0.000706698)
(-0.0147738 6.05728e-20 -0.000782306)
(-0.0149191 6.51075e-21 -0.000858241)
(-0.015078 7.55133e-20 -0.000934523)
(-0.0152504 3.21807e-21 -0.00101117)
(-0.0154365 6.49597e-20 -0.00108818)
(-0.0156363 6.41116e-21 -0.00116558)
(-0.0158498 8.72049e-20 -0.00124336)
(-0.0160771 6.27466e-20 -0.00132151)
(-0.0163183 -6.99464e-20 -0.00140003)
(-0.0165735 8.82562e-20 -0.00147889)
(-0.0168427 8.43316e-20 -0.00155806)
(-0.017126 4.93378e-20 -0.00163751)
(-0.0174235 7.45178e-21 -0.00171718)
(-0.0177352 9.77828e-20 -0.00179709)
(-0.0180607 2.64043e-20 -0.00187724)
(-0.0184001 6.90089e-20 -0.00195736)
(-0.0187538 2.4042e-20 -0.00203778)
(-0.019122 -5.84091e-20 -0.00211816)
(-0.0195045 1.23089e-19 -0.00219838)
(-0.0199014 1.14124e-19 -0.00227832)
(-0.0203126 9.1872e-20 -0.00235785)
(-0.0207379 8.03912e-21 -0.00243684)
(-0.0211773 8.52542e-20 -0.00251512)
(-0.0216306 -2.71347e-20 -0.0025925)
(-0.0220977 1.01239e-20 -0.0026688)
(-0.0225784 -1.24205e-20 -0.00274381)
(-0.0230724 6.93734e-21 -0.0028173)
(-0.0235794 -1.0113e-19 -0.00288902)
(-0.0240991 -1.47656e-20 -0.00295869)
(-0.024631 1.18618e-20 -0.00302602)
(-0.0251749 -1.71166e-20 -0.00309071)
(-0.0257301 1.48154e-20 -0.00315241)
(-0.0262962 -2.28687e-22 -0.00321077)
(-0.0268726 1.64573e-20 -0.00326544)
(-0.0274585 3.62246e-20 -0.00331604)
(-0.0280532 1.0768e-19 -0.00336217)
(-0.0286559 4.97113e-21 -0.00340345)
(-0.0292658 1.19207e-20 -0.00343945)
(-0.0298818 1.86872e-20 -0.00346976)
(-0.030503 4.85883e-21 -0.00349398)
(-0.0311281 2.83161e-21 -0.00351169)
(-0.031756 2.27003e-20 -0.00352249)
(-0.0323854 4.06755e-20 -0.00352598)
(-0.033015 1.03305e-20 -0.00352181)
(-0.0336433 -1.75346e-19 -0.00350963)
(-0.0342689 1.81331e-20 -0.00348913)
(-0.0348903 2.78069e-20 -0.00346005)
(-0.0355058 2.30924e-20 -0.00342217)
(-0.0361138 3.0132e-20 -0.00337533)
(-0.0367126 2.41031e-20 -0.00331943)
(-0.0373007 6.68463e-22 -0.00325445)
(-0.0378762 1.68584e-20 -0.00318045)
(-0.0384377 -1.61105e-19 -0.00309758)
(-0.0389834 -1.86136e-20 -0.00300611)
(-0.0395118 1.38019e-20 -0.00290639)
(-0.0400213 4.09397e-20 -0.00279889)
(-0.0405104 1.61047e-20 -0.00268414)
(-0.040978 2.4515e-20 -0.00256276)
(-0.0414227 2.04905e-19 -0.00243549)
(-0.0418437 -3.46156e-20 -0.00230312)
(-0.0422402 -4.43501e-21 -0.00216652)
(-0.0426118 2.12485e-20 -0.00202636)
(-0.0429584 2.0628e-19 -0.00188332)
(-0.0432798 -1.28018e-20 -0.00173951)
(-0.0435753 4.37307e-20 -0.0015923)
(-0.0438448 2.10536e-19 -0.0014424)
(-0.0440881 -5.73882e-20 -0.00129177)
(-0.0443057 -3.07786e-20 -0.00114075)
(-0.044498 1.60757e-20 -0.000989921)
(-0.0446652 2.12817e-19 -0.000839632)
(-0.0448076 -2.14221e-20 -0.000690117)
(-0.0449254 -1.66313e-20 -0.000541355)
(-0.0450194 -1.65285e-20 -0.000392633)
(-0.0450913 2.03871e-19 -0.000242177)
(-0.045143 -2.62758e-20 -8.69777e-05)
(-0.0451753 1.72864e-20 7.63382e-05)
(-0.0451864 2.13511e-19 0.000250779)
(-0.0451727 2.60928e-20 0.000438994)
(-0.0451308 -2.29512e-20 0.000643484)
(-0.0450576 9.18018e-21 0.000866929)
(-0.0449498 1.9236e-19 0.00111189)
(-0.0448034 1.31993e-20 0.00138099)
(-0.0446137 -2.37201e-20 0.00167876)
(-0.0443739 1.86849e-19 0.00200743)
(-0.0440749 2.47382e-21 0.00237133)
(-0.0436948 1.89038e-19 0.00275166)
(-0.0432488 -5.34209e-20 0.00322745)
(-0.0428911 1.56933e-19 0.00364398)
(-0.0430642 -7.12684e-20 0.00400705)
(-0.0436234 5.45196e-20 0.00493243)
(-0.13849 1.52024e-19 0.00516413)
(-0.0928952 8.57829e-19 -0.0271805)
(-0.0911613 6.69335e-20 -0.00573753)
(-0.049956 9.11192e-20 -0.0498582)
(-0.0583539 1.66824e-19 -0.0292255)
(-0.0382815 -1.05363e-19 -0.0564369)
(-0.0344156 -9.36377e-20 -0.045283)
(-0.0222979 1.38847e-19 -0.0583144)
(-0.0149675 1.30417e-19 -0.0547788)
(-0.00624421 -1.3761e-19 -0.0576938)
(-0.0139353 -5.26018e-24 -4.30314e-05)
(-0.014019 -1.27481e-22 -0.000130336)
(-0.0140479 -2.81384e-21 -0.000218467)
(-0.0140812 4.79438e-21 -0.000304997)
(-0.014124 3.96545e-21 -0.000391783)
(-0.0141802 7.42824e-22 -0.000479076)
(-0.0142519 -2.75076e-21 -0.000566776)
(-0.0143396 6.59268e-22 -0.000654757)
(-0.0144425 -6.38575e-20 -0.000743022)
(-0.01456 -7.85564e-20 -0.000831609)
(-0.0146913 -7.43161e-20 -0.000920553)
(-0.0148363 -1.40662e-20 -0.00100989)
(-0.0149948 -6.48398e-20 -0.00109963)
(-0.0151668 -8.09105e-20 -0.00118981)
(-0.0153525 -7.98853e-20 -0.00128043)
(-0.0155518 -4.87203e-21 -0.00137151)
(-0.0157649 -7.22477e-20 -0.00146304)
(-0.0159919 -8.12187e-20 -0.00155502)
(-0.0162327 -4.66908e-21 -0.00164744)
(-0.0164875 -6.61637e-20 -0.00174027)
(-0.0167564 -7.95016e-20 -0.0018335)
(-0.0170394 -6.47441e-20 -0.00192707)
(-0.0173366 8.11596e-21 -0.00202095)
(-0.017648 -8.65599e-20 -0.00211521)
(-0.0179733 5.79473e-22 -0.00220965)
(-0.0183126 -1.01187e-19 -0.00230423)
(-0.0186663 1.46969e-19 -0.00239902)
(-0.0190346 4.59065e-20 -0.0024937)
(-0.0194173 -6.10858e-20 -0.00258819)
(-0.0198146 -8.49696e-20 -0.00268236)
(-0.0202263 -9.70394e-20 -0.00277606)
(-0.0206523 1.52449e-20 -0.00286914)
(-0.0210926 -9.52376e-20 -0.00296139)
(-0.021547 -2.62028e-20 -0.00305261)
(-0.0220154 2.26791e-19 -0.00314258)
(-0.0224975 1.79508e-20 -0.00323104)
(-0.0229933 1.97757e-19 -0.00331772)
(-0.0235024 1.43779e-20 -0.00340232)
(-0.0240244 9.92002e-21 -0.00348454)
(-0.0245591 2.24631e-19 -0.00356402)
(-0.0251061 2.02622e-20 -0.00364039)
(-0.0256647 2.63817e-19 -0.00371328)
(-0.0262346 2.12345e-20 -0.00378226)
(-0.0268152 2.40323e-19 -0.00384691)
(-0.0274057 2.21307e-20 -0.00390678)
(-0.0280056 -1.43564e-19 -0.00396141)
(-0.0286138 2.61973e-19 -0.00401032)
(-0.0292296 2.33121e-20 -0.00405303)
(-0.0298521 2.8274e-19 -0.00408904)
(-0.0304801 2.40782e-20 -0.00411787)
(-0.0311125 2.86604e-19 -0.00413902)
(-0.0317482 3.31643e-19 -0.004152)
(-0.0323858 3.39746e-19 -0.00415636)
(-0.0330239 -1.47593e-20 -0.00415165)
(-0.0336612 1.06573e-20 -0.00413747)
(-0.034296 3.6689e-19 -0.00411344)
(-0.0349268 1.93614e-20 -0.00407923)
(-0.035552 3.37207e-19 -0.00403459)
(-0.0361699 2.8735e-20 -0.00397932)
(-0.0367786 3.48667e-19 -0.0039133)
(-0.0373766 2.9256e-20 -0.0038365)
(-0.0379619 3.70293e-19 -0.003749)
(-0.0385329 1.61798e-20 -0.00365096)
(-0.0390878 1.68396e-20 -0.00354268)
(-0.0396249 4.04123e-19 -0.00342457)
(-0.0401426 4.19513e-19 -0.00329716)
(-0.0406394 1.70681e-20 -0.00316107)
(-0.0411138 -1.78667e-20 -0.00301705)
(-0.0415645 -1.84074e-19 -0.00286596)
(-0.0419906 -2.89557e-20 -0.00270875)
(-0.0423911 2.45847e-20 -0.00254651)
(-0.0427658 2.78981e-21 -0.00238032)
(-0.0431146 -1.78127e-19 -0.00221099)
(-0.0434378 -3.72527e-20 -0.00204054)
(-0.0437359 1.42905e-20 -0.00187018)
(-0.0440072 -1.99965e-19 -0.00169636)
(-0.0442513 -3.26682e-20 -0.00152133)
(-0.0444686 2.25486e-20 -0.00134638)
(-0.0446601 -1.2235e-20 -0.00117239)
(-0.0448262 -1.8398e-19 -0.000999986)
(-0.0449673 -2.11069e-20 -0.00082947)
(-0.0450844 2.03826e-20 -0.000660514)
(-0.0451794 -1.77772e-20 -0.000491515)
(-0.0452551 -2.35373e-19 -0.000319564)
(-0.0453143 1.4373e-20 -0.000141144)
(-0.0453571 -2.16934e-20 4.67329e-05)
(-0.0453811 -2.00556e-19 0.000246408)
(-0.045383 -1.03344e-20 0.000460555)
(-0.0453596 1.83681e-20 0.000692335)
(-0.045308 -3.75284e-20 0.000945367)
(-0.0452253 -1.83763e-19 0.00122309)
(-0.0451078 -9.47041e-21 0.00153035)
(-0.0449508 -3.19634e-20 0.00187233)
(-0.0447467 -1.55773e-19 0.00225207)
(-0.0444868 -2.78609e-20 0.00267649)
(-0.0441488 -1.71404e-19 0.00312599)
(-0.0437481 -5.98556e-20 0.00369454)
(-0.0434104 -2.33495e-19 0.00420284)
(-0.0435938 1.58454e-20 0.00472741)
(-0.0443287 2.98818e-19 0.00582068)
(-0.124127 1.56984e-20 0.00626835)
(-0.0908608 8.9045e-19 -0.0174561)
(-0.0767658 9.33074e-20 -0.00210118)
(-0.0425955 -3.35623e-21 -0.037873)
(-0.0509894 -2.44194e-20 -0.0223612)
(-0.0333661 -1.46505e-19 -0.0460775)
(-0.0305988 -3.73806e-20 -0.0372534)
(-0.0195601 2.25272e-19 -0.0490662)
(-0.0133675 -1.30789e-19 -0.0461863)
(-0.0055488 -5.93098e-20 -0.0490503)
(-0.0138421 9.37311e-25 -4.94469e-05)
(-0.0139253 2.06564e-23 -0.000149782)
(-0.0139542 6.31441e-22 -0.000251124)
(-0.0139874 6.91884e-20 -0.000350671)
(-0.0140301 -5.26229e-22 -0.000450522)
(-0.0140861 5.98756e-21 -0.000550945)
(-0.0141576 -1.58376e-21 -0.000651819)
(-0.0142449 2.92025e-21 -0.000753)
(-0.0143475 6.48138e-20 -0.000854501)
(-0.0144645 9.04757e-22 -0.000956368)