/*--------------------------------*- C++ -*----------------------------------*\
| =========                 |                                                 |
| \\      /  F ield         | OpenFOAM: The Open Source CFD Toolbox           |
|  \\    /   O peration     | Version:  v2106                                 |
|   \\  /    A nd           | Website:  www.openfoam.com                      |
|    \\/     M anipulation  |                                                 |
\*---------------------------------------------------------------------------*/
FoamFile
{
    version     2.0;
    format      ascii;
    arch        "LSB;label=32;scalar=64";
    class       volScalarField;
    location    "0.9";
    object      k;
}
// * * * * * * * * * * * * * * * * * * * * * * * * * * * * * * * * * * * * * //

dimensions      [0 2 -2 0 0 0 0];

internalField   nonuniform List<scalar> 
29678
(
0.000132049
0.000192828
0.000206339
0.000210419
0.000212042
0.000212801
0.000213185
0.000213385
0.000213491
0.000213553
0.000213595
0.00021363
0.000213663
0.000213697
0.000213734
0.000213772
0.000213814
0.000213857
0.000213902
0.000213949
0.000213997
0.000214046
0.000214096
0.000214146
0.000214198
0.000214248
0.000214297
0.000214345
0.000214392
0.000214439
0.000214484
0.000214529
0.000214572
0.000214615
0.000214657
0.000214697
0.000214736
0.000214774
0.00021481
0.000214844
0.000214876
0.000214907
0.000214935
0.00021496
0.000214983
0.000215003
0.000215019
0.000215033
0.000215043
0.000215049
0.000215052
0.00021505
0.000215044
0.000215034
0.000215017
0.000214995
0.000214966
0.000214932
0.000214893
0.000214848
0.000214797
0.000214742
0.000214682
0.000214618
0.000214551
0.000214482
0.000214412
0.00021434
0.000214269
0.000214199
0.00021413
0.000214064
0.000214003
0.00021395
0.000213908
0.00021388
0.000213868
0.000213875
0.000213905
0.00021396
0.000214039
0.000214142
0.00021426
0.000214394
0.000214546
0.000214714
0.000214894
0.000215085
0.000215283
0.000215487
0.000215695
0.000215905
0.000216115
0.000216327
0.000216551
0.000216803
0.000217309
0.000218632
0.000227913
0.000277632
0.000254763
0.000254418
0.000245218
0.000240058
0.000235922
0.000234207
0.000232807
0.000230738
0.000227531
0.000222938
0.000132048
0.000192833
0.000206344
0.000210427
0.000212052
0.000212816
0.000213204
0.000213409
0.000213522
0.00021359
0.000213639
0.000213681
0.000213723
0.000213766
0.000213812
0.000213861
0.000213912
0.000213966
0.00021402
0.000214073
0.000214126
0.000214178
0.00021423
0.000214283
0.000214335
0.000214388
0.00021444
0.000214493
0.000214545
0.000214596
0.000214647
0.000214697
0.000214746
0.000214795
0.000214842
0.000214887
0.000214931
0.000214973
0.000215014
0.000215052
0.000215088
0.000215121
0.000215151
0.000215179
0.000215203
0.000215223
0.00021524
0.000215252
0.000215261
0.000215265
0.000215264
0.000215258
0.000215248
0.000215232
0.000215212
0.000215186
0.000215155
0.000215118
0.000215075
0.000215024
0.000214968
0.000214906
0.000214839
0.000214768
0.000214694
0.000214618
0.00021454
0.000214462
0.000214384
0.000214307
0.000214232
0.000214161
0.000214095
0.000214037
0.000213992
0.000213962
0.000213953
0.000213968
0.00021401
0.00021408
0.000214168
0.000214273
0.000214403
0.000214557
0.000214731
0.000214924
0.00021513
0.000215346
0.000215571
0.000215802
0.000216039
0.000216279
0.000216522
0.000216769
0.000217031
0.000217314
0.000217861
0.000218993
0.000225739
0.000260841
0.000249026
0.000251731
0.000245003
0.000241132
0.000236603
0.000234778
0.000232384
0.000229279
0.00022495
0.000220249
0.000132054
0.000192842
0.000206351
0.000210436
0.000212065
0.000212833
0.000213225
0.000213435
0.000213553
0.000213627
0.000213682
0.000213731
0.00021378
0.000213831
0.000213885
0.000213943
0.000214002
0.000214059
0.000214117
0.000214175
0.000214232
0.00021429
0.000214348
0.000214406
0.000214464
0.000214521
0.000214579
0.000214636
0.000214692
0.000214748
0.000214803
0.000214858
0.000214911
0.000214963
0.000215014
0.000215063
0.00021511
0.000215156
0.000215199
0.00021524
0.000215279
0.000215314
0.000215347
0.000215376
0.000215402
0.000215423
0.000215441
0.000215454
0.000215463
0.000215467
0.000215466
0.00021546
0.000215448
0.00021543
0.000215407
0.000215378
0.000215343
0.000215303
0.000215256
0.000215204
0.000215146
0.000215081
0.00021501
0.000214934
0.000214854
0.000214771
0.000214687
0.000214602
0.000214517
0.000214433
0.000214351
0.000214273
0.000214201
0.000214137
0.000214087
0.000214055
0.000214046
0.000214064
0.000214112
0.000214189
0.000214278
0.000214391
0.00021453
0.000214692
0.000214876
0.000215077
0.000215291
0.000215515
0.000215747
0.000215985
0.00021623
0.000216481
0.000216737
0.000217
0.000217278
0.000217579
0.000218147
0.000219149
0.000224703
0.000251487
0.000245506
0.000248676
0.000243733
0.000240858
0.000236304
0.000235081
0.00023266
0.000229783
0.000225423
0.000220515
0.000132057
0.000192852
0.000206361
0.000210448
0.00021208
0.000212851
0.000213247
0.00021346
0.000213581
0.000213658
0.000213717
0.00021377
0.000213824
0.00021388
0.00021394
0.000214001
0.000214061
0.000214121
0.000214182
0.000214242
0.000214302
0.000214362
0.000214422
0.000214482
0.000214541
0.0002146
0.000214659
0.000214717
0.000214775
0.000214832
0.000214888
0.000214943
0.000214997
0.00021505
0.000215102
0.000215152
0.0002152
0.000215246
0.00021529
0.000215332
0.000215371
0.000215408
0.000215441
0.000215471
0.000215497
0.00021552
0.000215538
0.000215552
0.000215562
0.000215567
0.000215566
0.000215561
0.00021555
0.000215534
0.000215512
0.000215484
0.000215451
0.000215411
0.000215366
0.000215315
0.000215258
0.000215195
0.000215125
0.00021505
0.000214969
0.000214885
0.000214797
0.000214709
0.00021462
0.000214532
0.000214446
0.000214365
0.000214289
0.000214222
0.000214169
0.000214134
0.000214125
0.000214144
0.000214197
0.000214276
0.000214369
0.000214487
0.00021463
0.000214797
0.000214984
0.000215188
0.000215405
0.000215631
0.000215866
0.000216109
0.00021636
0.000216618
0.000216882
0.000217153
0.000217433
0.000217737
0.000218251
0.000219176
0.000223825
0.000244926
0.000242703
0.000245045
0.000242187
0.000239854
0.000235973
0.000235277
0.000232992
0.00023046
0.000226214
0.000221088
0.000132057
0.000192863
0.000206371
0.000210461
0.000212097
0.000212871
0.000213269
0.000213484
0.000213607
0.000213686
0.000213747
0.000213803
0.000213859
0.000213918
0.000213979
0.00021404
0.000214101
0.000214162
0.000214222
0.000214283
0.000214343
0.000214403
0.000214463
0.000214523
0.000214583
0.000214642
0.000214701
0.000214759
0.000214816
0.000214873
0.000214929
0.000214984
0.000215038
0.000215091
0.000215143
0.000215193
0.000215241
0.000215287
0.000215332
0.000215374
0.000215413
0.00021545
0.000215484
0.000215514
0.000215541
0.000215564
0.000215583
0.000215599
0.000215609
0.000215615
0.000215616
0.000215612
0.000215602
0.000215588
0.000215567
0.000215541
0.000215509
0.000215472
0.000215428
0.000215379
0.000215325
0.000215265
0.000215198
0.000215125
0.000215046
0.000214962
0.000214875
0.000214785
0.000214695
0.000214606
0.000214519
0.000214436
0.000214359
0.000214292
0.000214239
0.000214205
0.000214198
0.000214221
0.000214278
0.000214361
0.00021446
0.000214584
0.000214732
0.000214904
0.000215094
0.0002153
0.000215519
0.000215748
0.000215987
0.000216235
0.000216491
0.000216756
0.000217027
0.000217306
0.000217585
0.000217894
0.000218346
0.000219236
0.000223313
0.000240877
0.000240394
0.00024224
0.000240742
0.000238479
0.000235208
0.000234916
0.000232923
0.000230832
0.000226802
0.000221565
0.000132053
0.000192874
0.000206384
0.000210477
0.000212117
0.000212893
0.000213293
0.00021351
0.000213634
0.000213714
0.000213776
0.000213833
0.00021389
0.00021395
0.00021401
0.000214071
0.000214131
0.000214191
0.000214251
0.000214311
0.000214371
0.00021443
0.00021449
0.000214549
0.000214609
0.000214667
0.000214726
0.000214784
0.000214841
0.000214898
0.000214954
0.000215009
0.000215063
0.000215116
0.000215168
0.000215218
0.000215266
0.000215313
0.000215358
0.000215401
0.000215441
0.000215478
0.000215513
0.000215544
0.000215572
0.000215596
0.000215617
0.000215633
0.000215645
0.000215652
0.000215655
0.000215652
0.000215644
0.000215631
0.000215612
0.000215588
0.000215558
0.000215522
0.000215481
0.000215434
0.000215381
0.000215323
0.000215259
0.000215188
0.000215111
0.000215028
0.000214941
0.000214851
0.000214761
0.000214671
0.000214584
0.000214501
0.000214425
0.00021436
0.000214309
0.000214279
0.000214275
0.000214304
0.000214367
0.000214455
0.000214561
0.000214691
0.000214845
0.00021502
0.000215214
0.000215422
0.000215643
0.000215875
0.000216117
0.000216371
0.000216634
0.000216906
0.000217185
0.000217472
0.000217753
0.000218069
0.000218469
0.000219338
0.00022304
0.000238235
0.000238566
0.000240141
0.000239423
0.000236914
0.000234343
0.000234408
0.000232754
0.000231122
0.000227392
0.0002221
0.000132044
0.000192885
0.000206398
0.000210496
0.00021214
0.000212919
0.000213321
0.000213539
0.000213663
0.000213744
0.000213807
0.000213864
0.000213922
0.000213981
0.00021404
0.000214099
0.000214157
0.000214216
0.000214275
0.000214335
0.000214394
0.000214453
0.000214512
0.000214571
0.00021463
0.000214688
0.000214746
0.000214804
0.000214861
0.000214918
0.000214974
0.000215029
0.000215084
0.000215137
0.000215189
0.00021524
0.000215289
0.000215337
0.000215382
0.000215426
0.000215467
0.000215505
0.000215541
0.000215573
0.000215602
0.000215628
0.00021565
0.000215668
0.000215681
0.00021569
0.000215695
0.000215694
0.000215688
0.000215677
0.00021566
0.000215638
0.00021561
0.000215576
0.000215537
0.000215492
0.000215441
0.000215385
0.000215324
0.000215255
0.00021518
0.000215098
0.000215012
0.000214922
0.000214831
0.000214741
0.000214653
0.00021457
0.000214496
0.000214433
0.000214386
0.00021436
0.000214363
0.000214398
0.000214468
0.000214559
0.000214672
0.000214808
0.000214967
0.000215146
0.000215342
0.000215552
0.000215776
0.000216012
0.00021626
0.00021652
0.000216791
0.000217072
0.000217361
0.000217658
0.000217945
0.000218274
0.000218642
0.000219519
0.000222994
0.000236393
0.000237153
0.000238588
0.000238419
0.000235463
0.000233451
0.000233711
0.000232349
0.000231111
0.000227752
0.000222553
0.000132031
0.000192897
0.000206413
0.000210517
0.000212166
0.000212949
0.000213353
0.000213571
0.000213697
0.000213778
0.000213841
0.000213898
0.000213956
0.000214013
0.00021407
0.000214127
0.000214184
0.000214242
0.0002143
0.000214358
0.000214416
0.000214475
0.000214533
0.000214592
0.00021465
0.000214708
0.000214766
0.000214824
0.000214882
0.000214938
0.000214995
0.00021505
0.000215105
0.000215159
0.000215211
0.000215263
0.000215313
0.000215361
0.000215408
0.000215452
0.000215494
0.000215534
0.000215571
0.000215605
0.000215636
0.000215663
0.000215687
0.000215707
0.000215722
0.000215733
0.00021574
0.000215741
0.000215738
0.000215729
0.000215715
0.000215695
0.000215669
0.000215638
0.000215601
0.000215558
0.000215509
0.000215455
0.000215396
0.000215332
0.000215259
0.00021518
0.000215095
0.000215005
0.000214914
0.000214823
0.000214734
0.000214652
0.000214578
0.000214518
0.000214475
0.000214454
0.000214463
0.000214506
0.000214578
0.000214674
0.000214792
0.000214933
0.000215096
0.000215278
0.000215477
0.000215691
0.000215919
0.00021616
0.000216416
0.000216684
0.000216964
0.000217256
0.000217556
0.000217866
0.000218165
0.000218516
0.000218872
0.000219786
0.000223116
0.000235065
0.000236066
0.000237403
0.000237706
0.00023414
0.000232595
0.000232946
0.000231831
0.000230934
0.000227938
0.000222954
0.000132014
0.00019291
0.00020643
0.000210541
0.000212195
0.000212982
0.000213388
0.000213608
0.000213734
0.000213815
0.000213878
0.000213936
0.000213991
0.000214046
0.000214101
0.000214157
0.000214213
0.000214269
0.000214326
0.000214383
0.000214441
0.000214498
0.000214556
0.000214614
0.000214672
0.00021473
0.000214788
0.000214846
0.000214903
0.00021496
0.000215017
0.000215073
0.000215128
0.000215182
0.000215236
0.000215288
0.000215339
0.000215388
0.000215436
0.000215482
0.000215525
0.000215566
0.000215605
0.000215641
0.000215674
0.000215703
0.000215729
0.000215751
0.000215768
0.000215782
0.000215791
0.000215795
0.000215794
0.000215788
0.000215776
0.000215759
0.000215736
0.000215708
0.000215673
0.000215633
0.000215588
0.000215536
0.000215479
0.000215417
0.00021535
0.000215274
0.000215192
0.000215104
0.000215013
0.000214921
0.000214832
0.00021475
0.000214677
0.000214618
0.000214578
0.000214563
0.000214578
0.000214625
0.000214699
0.000214798
0.000214921
0.000215066
0.000215233
0.000215418
0.000215621
0.000215839
0.000216073
0.000216322
0.000216586
0.000216864
0.000217156
0.00021746
0.000217774
0.0002181
0.000218418
0.000218798
0.000219157
0.000220124
0.000223354
0.000234111
0.000235223
0.000236485
0.000237255
0.000233027
0.000231839
0.000232167
0.000231113
0.000230494
0.000227619
0.000223254
0.000131993
0.000192922
0.000206449
0.000210567
0.000212228
0.000213019
0.000213428
0.000213649
0.000213775
0.000213857
0.00021392
0.000213976
0.000214029
0.000214082
0.000214135
0.000214188
0.000214243
0.000214298
0.000214354
0.00021441
0.000214467
0.000214524
0.000214581
0.000214639
0.000214696
0.000214754
0.000214812
0.00021487
0.000214927
0.000214984
0.000215041
0.000215098
0.000215153
0.000215209
0.000215263
0.000215316
0.000215368
0.000215418
0.000215467
0.000215514
0.00021556
0.000215602
0.000215643
0.000215681
0.000215715
0.000215747
0.000215775
0.0002158
0.00021582
0.000215836
0.000215848
0.000215855
0.000215857
0.000215854
0.000215845
0.000215832
0.000215812
0.000215787
0.000215756
0.000215719
0.000215677
0.000215628
0.000215575
0.000215516
0.000215451
0.000215382
0.000215304
0.00021522
0.00021513
0.000215039
0.000214951
0.000214868
0.000214796
0.000214739
0.000214702
0.000214691
0.00021471
0.000214757
0.000214833
0.000214934
0.00021506
0.000215208
0.000215378
0.000215567
0.000215774
0.000215999
0.00021624
0.000216498
0.000216772
0.000217063
0.000217368
0.000217686
0.000218017
0.000218363
0.000218706
0.000219121
0.000219496
0.00022052
0.000223674
0.000233433
0.000234564
0.000235771
0.000236987
0.000232141
0.000231192
0.000231377
0.000230209
0.000229615
0.000226889
0.000223327
0.000131967
0.000192935
0.000206468
0.000210596
0.000212264
0.00021306
0.000213472
0.000213694
0.000213821
0.000213903
0.000213964
0.000214018
0.000214068
0.000214119
0.00021417
0.000214222
0.000214275
0.000214329
0.000214384
0.000214439
0.000214495
0.000214551
0.000214608
0.000214665
0.000214722
0.00021478
0.000214838
0.000214895
0.000214953
0.000215011
0.000215068
0.000215125
0.000215181
0.000215237
0.000215292
0.000215346
0.0002154
0.000215451
0.000215502
0.000215551
0.000215597
0.000215642
0.000215685
0.000215725
0.000215762
0.000215796
0.000215827
0.000215854
0.000215877
0.000215897
0.000215912
0.000215922
0.000215927
0.000215928
0.000215923
0.000215913
0.000215897
0.000215876
0.000215849
0.000215816
0.000215777
0.000215732
0.000215682
0.000215627
0.000215566
0.000215501
0.00021543
0.000215354
0.000215269
0.000215181
0.000215094
0.000215012
0.000214941
0.000214886
0.000214852
0.000214842
0.00021486
0.000214906
0.000214982
0.000215085
0.000215213
0.000215363
0.000215535
0.000215728
0.000215941
0.000216172
0.000216421
0.000216689
0.000216976
0.00021728
0.0002176
0.000217935
0.000218288
0.000218658
0.000219032
0.000219486
0.000219888
0.000220963
0.000224057
0.00023296
0.000234049
0.000235221
0.00023684
0.000231469
0.000230623
0.000230479
0.000229141
0.000228362
0.000225746
0.000222705
0.000131936
0.000192949
0.00020649
0.000210627
0.000212303
0.000213105
0.00021352
0.000213743
0.00021387
0.000213951
0.00021401
0.000214061
0.000214109
0.000214158
0.000214207
0.000214258
0.000214309
0.000214362
0.000214415
0.00021447
0.000214525
0.00021458
0.000214637
0.000214693
0.00021475
0.000214808
0.000214866
0.000214923
0.000214981
0.000215039
0.000215097
0.000215154
0.000215212
0.000215268
0.000215325
0.00021538
0.000215434
0.000215488
0.00021554
0.00021559
0.000215639
0.000215686
0.000215731
0.000215773
0.000215813
0.00021585
0.000215884
0.000215914
0.000215941
0.000215964
0.000215982
0.000215996
0.000216006
0.00021601
0.00021601
0.000216004
0.000215992
0.000215975
0.000215952
0.000215924
0.000215889
0.000215849
0.000215804
0.000215753
0.000215696
0.000215635
0.00021557
0.0002155
0.000215426
0.000215346
0.000215265
0.000215187
0.000215118
0.000215063
0.000215028
0.000215017
0.000215033
0.000215079
0.000215153
0.000215255
0.000215383
0.000215535
0.000215709
0.000215905
0.000216122
0.00021636
0.000216618
0.000216897
0.000217197
0.000217516
0.000217854
0.00021821
0.000218588
0.000218987
0.000219399
0.000219892
0.000220331
0.000221449
0.000224491
0.000232643
0.000233652
0.000234808
0.000236764
0.000230889
0.000230062
0.000229424
0.000227921
0.000226817
0.000224287
0.000221636
0.000131902
0.000192962
0.000206512
0.00021066
0.000212345
0.000213153
0.000213571
0.000213796
0.000213921
0.000213999
0.000214056
0.000214105
0.000214151
0.000214198
0.000214246
0.000214295
0.000214345
0.000214397
0.000214449
0.000214502
0.000214557
0.000214612
0.000214667
0.000214724
0.000214781
0.000214838
0.000214895
0.000214953
0.000215012
0.00021507
0.000215128
0.000215186
0.000215244
0.000215302
0.000215359
0.000215416
0.000215472
0.000215527
0.000215581
0.000215633
0.000215684
0.000215734
0.000215781
0.000215826
0.000215869
0.000215909
0.000215946
0.00021598
0.00021601
0.000216037
0.00021606
0.000216078
0.000216092
0.000216101
0.000216105
0.000216104
0.000216097
0.000216085
0.000216068
0.000216044
0.000216015
0.00021598
0.000215939
0.000215893
0.000215842
0.000215786
0.000215727
0.000215663
0.000215596
0.000215526
0.000215455
0.000215385
0.000215321
0.000215269
0.000215235
0.000215223
0.000215237
0.00021528
0.000215352
0.000215451
0.000215577
0.000215728
0.000215903
0.000216101
0.000216322
0.000216566
0.000216833
0.000217124
0.000217438
0.000217774
0.000218132
0.000218512
0.000218919
0.000219353
0.000219807
0.00022033
0.000220811
0.000221973
0.000224972
0.000232452
0.000233356
0.000234514
0.000236725
0.000230281
0.000229464
0.000228328
0.000226625
0.000225163
0.000222752
0.000220406
0.000131863
0.000192976
0.000206537
0.000210696
0.000212391
0.000213205
0.000213625
0.000213849
0.000213973
0.000214048
0.000214103
0.00021415
0.000214195
0.00021424
0.000214286
0.000214334
0.000214383
0.000214433
0.000214484
0.000214537
0.00021459
0.000214645
0.0002147
0.000214756
0.000214812
0.00021487
0.000214927
0.000214985
0.000215044
0.000215103
0.000215162
0.000215221
0.00021528
0.000215338
0.000215397
0.000215455
0.000215513
0.000215569
0.000215625
0.00021568
0.000215733
0.000215785
0.000215836
0.000215884
0.00021593
0.000215973
0.000216014
0.000216052
0.000216087
0.000216118
0.000216145
0.000216168
0.000216187
0.000216201
0.00021621
0.000216215
0.000216214
0.000216207
0.000216195
0.000216177
0.000216154
0.000216125
0.00021609
0.00021605
0.000216005
0.000215955
0.000215902
0.000215845
0.000215786
0.000215724
0.000215663
0.000215604
0.00021555
0.000215505
0.000215474
0.000215463
0.000215476
0.000215516
0.000215583
0.000215679
0.000215801
0.000215949
0.000216123
0.000216321
0.000216545
0.000216794
0.000217069
0.000217371
0.0002177
0.000218055
0.000218436
0.000218844
0.000219285
0.000219756
0.000220251
0.000220797
0.000221327
0.000222535
0.000225494
0.000232366
0.000233149
0.000234315
0.000236708
0.000229694
0.00022885
0.000227329
0.000225457
0.000223726
0.000221487
0.000219456
0.000131819
0.00019299
0.000206562
0.000210734
0.000212439
0.000213259
0.000213681
0.000213902
0.000214024
0.000214098
0.000214151
0.000214196
0.000214239
0.000214283
0.000214327
0.000214374
0.000214421
0.000214471
0.000214521
0.000214573
0.000214625
0.000214679
0.000214734
0.00021479
0.000214846
0.000214903
0.000214961
0.000215019
0.000215078
0.000215138
0.000215197
0.000215257
0.000215317
0.000215377
0.000215437
0.000215497
0.000215556
0.000215615
0.000215673
0.00021573
0.000215786
0.000215841
0.000215894
0.000215946
0.000215995
0.000216043
0.000216088
0.00021613
0.000216169
0.000216205
0.000216237
0.000216266
0.00021629
0.00021631
0.000216326
0.000216336
0.000216341
0.000216341
0.000216336
0.000216325
0.000216308
0.000216286
0.000216258
0.000216225
0.000216187
0.000216144
0.000216098
0.000216048
0.000215997
0.000215945
0.000215893
0.000215844
0.000215801
0.000215766
0.000215744
0.000215738
0.000215751
0.000215789
0.000215852
0.000215943
0.00021606
0.000216204
0.000216374
0.000216571
0.000216795
0.000217047
0.000217329
0.000217642
0.000217987
0.000218362
0.000218768
0.000219208
0.000219686
0.000220196
0.000220719
0.000221292
0.000221875
0.000223131
0.000226054
0.000232372
0.000233019
0.00023422
0.000236699
0.000229188
0.000228225
0.000226455
0.000224608
0.000222774
0.00022076
0.000218853
0.000131771
0.000193005
0.000206589
0.000210774
0.00021249
0.000213314
0.000213735
0.000213956
0.000214076
0.000214148
0.000214199
0.000214242
0.000214284
0.000214326
0.00021437
0.000214415
0.000214461
0.000214509
0.000214559
0.00021461
0.000214662
0.000214715
0.00021477
0.000214825
0.000214881
0.000214938
0.000214996
0.000215055
0.000215115
0.000215174
0.000215235
0.000215296
0.000215357
0.000215418
0.00021548
0.000215541
0.000215603
0.000215663
0.000215724
0.000215784
0.000215843
0.000215901
0.000215957
0.000216012
0.000216066
0.000216118
0.000216167
0.000216214
0.000216258
0.0002163
0.000216338
0.000216372
0.000216403
0.000216429
0.000216451
0.000216469
0.000216481
0.000216489
0.000216491
0.000216487
0.000216479
0.000216464
0.000216444
0.000216419
0.000216389
0.000216355
0.000216317
0.000216276
0.000216233
0.00021619
0.000216149
0.00021611
0.000216077
0.000216053
0.000216041
0.000216043
0.000216062
0.000216101
0.000216162
0.000216248
0.00021636
0.000216497
0.000216662
0.000216855
0.000217077
0.00021733
0.000217617
0.00021794
0.0002183
0.000218697
0.000219132
0.000219607
0.000220123
0.000220655
0.000221209
0.000221814
0.000222455
0.000223762
0.000226648
0.00023245
0.000232956
0.000234224
0.000236583
0.000228754
0.000227753
0.000225951
0.000224144
0.000222286
0.000220421
0.000218595
0.000131719
0.000193019
0.000206617
0.000210816
0.000212542
0.000213369
0.00021379
0.00021401
0.000214128
0.000214198
0.000214247
0.000214289
0.000214329
0.00021437
0.000214412
0.000214456
0.000214502
0.000214549
0.000214598
0.000214648
0.0002147
0.000214753
0.000214807
0.000214862
0.000214918
0.000214975
0.000215034
0.000215093
0.000215153
0.000215213
0.000215275
0.000215337
0.000215399
0.000215462
0.000215525
0.000215588
0.000215652
0.000215715
0.000215778
0.000215841
0.000215903
0.000215964
0.000216025
0.000216084
0.000216142
0.000216198
0.000216252
0.000216305
0.000216355
0.000216402
0.000216446
0.000216487
0.000216525
0.000216559
0.000216588
0.000216614
0.000216634
0.00021665
0.000216661
0.000216666
0.000216666
0.000216661
0.000216651
0.000216635
0.000216615
0.00021659
0.000216561
0.00021653
0.000216498
0.000216465
0.000216434
0.000216406
0.000216384
0.00021637
0.000216367
0.000216378
0.000216405
0.000216449
0.000216512
0.000216597
0.000216704
0.000216836
0.000216994
0.00021718
0.000217398
0.000217649
0.000217938
0.000218269
0.000218644
0.000219064
0.000219529
0.000220041
0.000220579
0.000221135
0.000221722
0.000222363
0.000223065
0.000224426
0.000227269
0.000232555
0.000232953
0.000234326
0.000236386
0.000228328
0.000227439
0.000225752
0.000224
0.000222162
0.00022038
0.000218615
0.000131663
0.000193034
0.000206646
0.00021086
0.000212594
0.000213423
0.000213845
0.000214064
0.00021418
0.000214248
0.000214296
0.000214336
0.000214375
0.000214415
0.000214456
0.000214499
0.000214544
0.00021459
0.000214638
0.000214688
0.000214739
0.000214791
0.000214845
0.0002149
0.000214956
0.000215014
0.000215072
0.000215132
0.000215192
0.000215254
0.000215316
0.000215379
0.000215443
0.000215508
0.000215573
0.000215638
0.000215704
0.000215769
0.000215835
0.000215901
0.000215967
0.000216032
0.000216096
0.00021616
0.000216222
0.000216284
0.000216344
0.000216402
0.000216458
0.000216512
0.000216563
0.000216612
0.000216657
0.000216699
0.000216737
0.000216772
0.000216801
0.000216827
0.000216847
0.000216863
0.000216873
0.000216879
0.000216879
0.000216874
0.000216865
0.000216851
0.000216834
0.000216815
0.000216794
0.000216773
0.000216753
0.000216737
0.000216726
0.000216723
0.000216729
0.000216748
0.000216782
0.000216833
0.000216901
0.000216988
0.000217095
0.000217223
0.000217375
0.000217554
0.000217764
0.00021801
0.000218299
0.000218635
0.000219023
0.000219466
0.000219962
0.000220494
0.00022105
0.000221632
0.000222256
0.000222939
0.000223706
0.000225121
0.000227911
0.000232682
0.000233014
0.000234394
0.00023648
0.000228386
0.000227385
0.000225844
0.000224122
0.000222308
0.000220542
0.000218791
0.000131603
0.000193048
0.000206676
0.000210906
0.000212646
0.000213477
0.0002139
0.000214117
0.000214231
0.000214298
0.000214344
0.000214383
0.000214421
0.00021446
0.0002145
0.000214542
0.000214586
0.000214632
0.000214679
0.000214728
0.000214778
0.000214831
0.000214884
0.000214939
0.000214996
0.000215053
0.000215112
0.000215172
0.000215234
0.000215296
0.000215359
0.000215424
0.000215489
0.000215555
0.000215622
0.00021569
0.000215758
0.000215827
0.000215896
0.000215965
0.000216034
0.000216103
0.000216172
0.000216241
0.000216308
0.000216375
0.000216441
0.000216506
0.000216569
0.00021663
0.000216689
0.000216746
0.0002168
0.000216851
0.000216899
0.000216943
0.000216983
0.00021702
0.000217051
0.000217078
0.000217101
0.000217118
0.000217131
0.000217139
0.000217143
0.000217142
0.000217139
0.000217132
0.000217125
0.000217117
0.000217111
0.000217108
0.000217109
0.000217117
0.000217134
0.000217161
0.000217202
0.000217258
0.000217331
0.000217422
0.000217532
0.00021766
0.000217809
0.000217981
0.000218183
0.000218422
0.000218705
0.000219043
0.000219442
0.000219905
0.000220419
0.00022096
0.000221537
0.000222148
0.000222811
0.000223542
0.000224376
0.000225848
0.000228581
0.00023287
0.00023315
0.000234737
0.000236533
0.000228598
0.000227499
0.000226106
0.000224439
0.000222648
0.000220845
0.000219036
0.000131538
0.000193063
0.000206707
0.000210952
0.000212699
0.00021353
0.000213955
0.00021417
0.000214283
0.000214347
0.000214392
0.00021443
0.000214467
0.000214505
0.000214544
0.000214585
0.000214629
0.000214674
0.00021472
0.000214769
0.000214819
0.000214871
0.000214924
0.000214979
0.000215036
0.000215094
0.000215153
0.000215214
0.000215276
0.00021534
0.000215404
0.00021547
0.000215537
0.000215605
0.000215674
0.000215744
0.000215815
0.000215887
0.000215959
0.000216032
0.000216105
0.000216179
0.000216252
0.000216326
0.000216399
0.000216473
0.000216545
0.000216617
0.000216687
0.000216756
0.000216824
0.00021689
0.000216954
0.000217015
0.000217074
0.000217129
0.000217181
0.00021723
0.000217274
0.000217315
0.000217351
0.000217382
0.00021741
0.000217432
0.000217451
0.000217466
0.000217478
0.000217487
0.000217495
0.000217503
0.000217512
0.000217523
0.000217538
0.000217559
0.000217587
0.000217625
0.000217673
0.000217735
0.000217813
0.000217907
0.000218018
0.000218148
0.000218297
0.000218467
0.000218662
0.000218891
0.000219166
0.000219501
0.000219906
0.000220375
0.000220887
0.000221439
0.000222038
0.000222683
0.000223388
0.000224172
0.000225076
0.000226608
0.000229282
0.000233129
0.000233377
0.00023523
0.000236596
0.000228857
0.000227718
0.000226454
0.000224865
0.00022312
0.000221248
0.0002193
0.000131469
0.000193078
0.000206739
0.000210996
0.00021275
0.000213584
0.000214009
0.000214223
0.000214333
0.000214396
0.00021444
0.000214477
0.000214513
0.00021455
0.000214588
0.000214629
0.000214672
0.000214716
0.000214762
0.000214811
0.00021486
0.000214912
0.000214966
0.000215021
0.000215078
0.000215136
0.000215196
0.000215257
0.00021532
0.000215385
0.000215451
0.000215518
0.000215587
0.000215657
0.000215729
0.000215801
0.000215875
0.00021595
0.000216026
0.000216102
0.00021618
0.000216258
0.000216337
0.000216416
0.000216496
0.000216575
0.000216655
0.000216734
0.000216813
0.000216891
0.000216969
0.000217045
0.000217119
0.000217192
0.000217262
0.000217331
0.000217396
0.000217459
0.000217518
0.000217573
0.000217625
0.000217673
0.000217717
0.000217757
0.000217793
0.000217826
0.000217856
0.000217884
0.00021791
0.000217935
0.000217961
0.000217989
0.00021802
0.000218055
0.000218097
0.000218145
0.000218203
0.000218273
0.000218355
0.000218452
0.000218565
0.000218695
0.000218843
0.000219013
0.000219206
0.000219426
0.00021969
0.000220016
0.000220408
0.000220858
0.000221367
0.000221931
0.000222555
0.000223235
0.000223987
0.00022483
0.000225805
0.000227402
0.000230016
0.000233472
0.000233809
0.000235837
0.000236784
0.000229206
0.000228052
0.000226787
0.000225383
0.000223627
0.000221713
0.000219546
0.000131396
0.000193093
0.000206772
0.00021104
0.000212801
0.000213639
0.000214063
0.000214275
0.000214383
0.000214445
0.000214488
0.000214524
0.000214559
0.000214595
0.000214633
0.000214673
0.000214715
0.000214759
0.000214805
0.000214853
0.000214902
0.000214954
0.000215007
0.000215063
0.00021512
0.000215179
0.000215239
0.000215302
0.000215366
0.000215431
0.000215499
0.000215568
0.000215639
0.000215711
0.000215785
0.00021586
0.000215937
0.000216015
0.000216095
0.000216176
0.000216258
0.000216341
0.000216426
0.000216511
0.000216597
0.000216684
0.000216771
0.000216859
0.000216947
0.000217035
0.000217123
0.00021721
0.000217296
0.000217382
0.000217466
0.000217549
0.000217629
0.000217708
0.000217783
0.000217856
0.000217927
0.000217993
0.000218057
0.000218117
0.000218174
0.000218227
0.000218279
0.000218327
0.000218374
0.00021842
0.000218467
0.000218514
0.000218563
0.000218615
0.000218671
0.000218733
0.000218802
0.00021888
0.000218968
0.000219069
0.000219183
0.000219312
0.000219458
0.000219625
0.000219816
0.000220032
0.000220284
0.000220579
0.000220932
0.000221359
0.000221863
0.000222438
0.000223087
0.000223805
0.000224608
0.000225514
0.000226565
0.00022823
0.00023078
0.000233923
0.000234347
0.000236586
0.000237125
0.000229695
0.000228498
0.000227145
0.000225991
0.000224128
0.000222137
0.00021973
0.000131319
0.000193108
0.000206805
0.000211083
0.000212851
0.000213693
0.000214117
0.000214326
0.000214433
0.000214493
0.000214535
0.00021457
0.000214604
0.00021464
0.000214677
0.000214717
0.000214758
0.000214802
0.000214847
0.000214895
0.000214945
0.000214996
0.00021505
0.000215105
0.000215163
0.000215222
0.000215284