/*--------------------------------*- C++ -*----------------------------------*\
| =========                 |                                                 |
| \\      /  F ield         | OpenFOAM: The Open Source CFD Toolbox           |
|  \\    /   O peration     | Version:  v2106                                 |
|   \\  /    A nd           | Website:  www.openfoam.com                      |
|    \\/     M anipulation  |                                                 |
\*---------------------------------------------------------------------------*/
FoamFile
{
    version     2.0;
    format      ascii;
    arch        "LSB;label=32;scalar=64";
    class       volScalarField;
    location    "0.9";
    object      nut;
}
// * * * * * * * * * * * * * * * * * * * * * * * * * * * * * * * * * * * * * //

dimensions      [0 2 -1 0 0 0 0];

internalField   nonuniform List<scalar> 
29678
(
1.89462e-05
0.000143744
0.000423565
0.000776546
0.00107934
0.00127869
0.00138652
0.00143629
0.00145638
0.00146362
0.00146602
0.0014668
0.00146708
0.00146724
0.00146737
0.0014675
0.00146763
0.00146778
0.00146792
0.00146807
0.00146822
0.00146836
0.00146851
0.00146865
0.0014605
0.00141079
0.00136459
0.00132271
0.00128494
0.00125092
0.00122037
0.00119313
0.00116903
0.00114796
0.00112984
0.00111461
0.00110223
0.00109273
0.00108612
0.00108247
0.00108188
0.0010845
0.00109051
0.00110015
0.00111372
0.00113159
0.00115419
0.0011821
0.00121596
0.00125658
0.00130489
0.00136213
0.00143064
0.00146968
0.00146971
0.00146974
0.00146976
0.00146978
0.00146979
0.00146979
0.00146977
0.00146975
0.0014697
0.00146964
0.00146954
0.00146943
0.0014693
0.00146916
0.001469
0.00146883
0.00146865
0.00146847
0.00146829
0.00146813
0.001468
0.00146791
0.00146787
0.0014679
0.001468
0.00146818
0.0014684
0.00146867
0.00127818
0.0010731
0.000915669
0.000792256
0.000693273
0.000612755
0.000546457
0.000491406
0.000445521
0.000407314
0.000375718
0.000350126
0.00032732
0.000311235
0.000283504
0.000253282
4.50989e-05
4.25508e-05
3.39744e-05
2.34549e-05
3.0435e-05
2.86732e-05
5.05487e-05
4.06147e-05
4.31324e-05
4.14528e-05
5.66579e-05
1.00914e-05
1.89461e-05
0.00014378
0.00042367
0.000776703
0.00107949
0.00127882
0.00138662
0.00143637
0.00145646
0.00146372
0.00146613
0.00146692
0.00146722
0.0014674
0.00146755
0.0014677
0.00146786
0.00146802
0.00142595
0.00135782
0.00129479
0.00123729
0.00118457
0.00113636
0.00109241
0.00105243
0.00101604
0.000983069
0.000953336
0.000926617
0.000902696
0.000881394
0.000862565
0.00084609
0.000831882
0.000819877
0.00081004
0.000802356
0.000796837
0.000793517
0.000792461
0.000793764
0.00079755
0.000803987
0.000813284
0.000825704
0.00084157
0.000861283
0.000885338
0.000914349
0.000949093
0.000990587
0.00104021
0.00109966
0.0011711
0.00125713
0.00136201
0.00146912
0.00146924
0.00146933
0.00146941
0.00146946
0.00146949
0.00146949
0.00146946
0.0014694
0.00146932
0.00146922
0.0014691
0.00146896
0.0014688
0.00146863
0.00146846
0.00146831
0.00146818
0.00146809
0.00146807
0.00146812
0.00146825
0.00146845
0.00137984
0.00111662
0.000924323
0.000777775
0.000663668
0.000573916
0.000502191
0.000443986
0.000396098
0.000356267
0.000322876
0.000294724
0.000270942
0.000250832
0.000232381
0.000217864
0.000192514
0.000172425
4.98413e-05
3.69454e-05
2.20697e-05
2.35969e-05
3.44887e-05
3.05694e-05
3.87352e-05
3.28693e-05
3.79889e-05
3.84998e-05
4.30873e-05
4.76626e-05
1.89465e-05
0.000143832
0.000423829
0.00077694
0.00107973
0.00127901
0.00138676
0.00143648
0.00145657
0.00146383
0.00146625
0.00146706
0.00146738
0.00146758
0.00146776
0.00146793
0.00140271
0.00132479
0.00125437
0.00119093
0.00113325
0.00108073
0.001033
0.000989829
0.00095078
0.000915566
0.000883736
0.00085504
0.000829276
0.000806199
0.000785584
0.000767242
0.000751023
0.000736807
0.000724503
0.000714046
0.000705391
0.000698516
0.000693419
0.000690116
0.000688648
0.000689078
0.000691492
0.000696009
0.000702775
0.000711977
0.000723845
0.000738662
0.000756779
0.000778634
0.00080478
0.000835946
0.0008731
0.000917312
0.000970095
0.0010332
0.00110907
0.00120089
0.00131315
0.00145222
0.00146908
0.00146922
0.00146933
0.00146941
0.00146944
0.00146943
0.0014694
0.00146935
0.00146927
0.00146916
0.00146903
0.00146889
0.00146873
0.00146857
0.00146844
0.00146836
0.00146834
0.00146841
0.00146856
0.00146876
0.00120605
0.000990303
0.000831703
0.00070777
0.00061011
0.000532417
0.000469599
0.000418024
0.000375085
0.000338923
0.000308189
0.000281851
0.00025917
0.000239241
0.000220733
0.00020421
0.000175873
0.000159111
5.46352e-05
3.1025e-05
2.61659e-05
2.29946e-05
3.31367e-05
2.81933e-05
4.2429e-05
3.36964e-05
4.07461e-05
4.01888e-05
4.8111e-05
5.16086e-05
1.89468e-05
0.000143892
0.000424013
0.000777218
0.00108001
0.00127923
0.00138692
0.0014366
0.00145667
0.00146393
0.00146637
0.00146718
0.00146752
0.00146774
0.00146793
0.00139404
0.001313
0.0012407
0.00117621
0.00111841
0.00106627
0.00101935
0.000977133
0.000939106
0.000904786
0.000873669
0.000845375
0.000819691
0.000796461
0.000775524
0.000756725
0.00073993
0.000725026
0.000711923
0.000700551
0.000690858
0.000682812
0.000676397
0.000671615
0.000668484
0.000667042
0.000667347
0.000669478
0.000673538
0.000679659
0.000688004
0.000698775
0.000712217
0.000728631
0.00074839
0.000771951
0.000799882
0.000832877
0.000871704
0.00091727
0.00097086
0.00103434
0.00110993
0.00120079
0.00131099
0.00144682
0.00146914
0.0014693
0.0014694
0.00146947
0.0014695
0.0014695
0.00146947
0.00146942
0.00146934
0.00146924
0.00146911
0.00146897
0.00146882
0.00146869
0.00146861
0.00146859
0.00146866
0.00146882
0.00140586
0.00114481
0.000952847
0.000807589
0.000692633
0.000600523
0.0005261
0.00046526
0.000414863
0.000372574
0.000336697
0.000305991
0.000279498
0.000256556
0.000236091
0.000217914
0.000199803
0.000174584
0.000156913
6.4412e-05
2.67626e-05
2.47323e-05
2.19892e-05
3.23855e-05
3.13008e-05
4.84486e-05
3.70115e-05
4.86115e-05
4.79648e-05
5.5521e-05
4.74953e-05
1.89468e-05
0.000143955
0.000424207
0.000777514
0.00108031
0.00127947
0.00138708
0.00143672
0.00145677
0.00146403
0.00146646
0.00146729
0.00146764
0.00146786
0.00142411
0.00134058
0.00126585
0.00119986
0.00114063
0.00108731
0.00103914
0.000995616
0.000956273
0.000920674
0.00088841
0.000859096
0.000832415
0.000808142
0.00078611
0.000766175
0.000748208
0.000732097
0.000717751
0.000705094
0.000694071
0.000684639
0.000676775
0.000670467
0.000665723
0.000662562
0.000661024
0.000661164
0.00066306
0.00066681
0.000672541
0.000680407
0.000690596
0.000703339
0.000718918
0.000737673
0.000760022
0.000786471
0.000817629
0.000854212
0.000897092
0.000947389
0.00100656
0.00107636
0.00115898
0.00125724
0.001376
0.00146911
0.00146929
0.00146941
0.00146949
0.00146955
0.00146957
0.00146956
0.00146953
0.00146947
0.00146938
0.00146928
0.00146915
0.00146902
0.0014689
0.00146882
0.00146881
0.00146889
0.00146907
0.00133553
0.00109955
0.000919529
0.000781913
0.000672969
0.000585258
0.000513857
0.00045508
0.000406107
0.00036482
0.000329662
0.000299482
0.000273391
0.000250789
0.000230539
0.000213583
0.000194657
0.000174884
0.000153201
7.23319e-05
2.39491e-05
2.42394e-05
2.03899e-05
3.06163e-05
3.21634e-05
5.56271e-05
4.06176e-05
5.67582e-05
5.41493e-05
6.33945e-05
5.28568e-05
1.89464e-05
0.000144019
0.000424407
0.00077782
0.00108062
0.00127972
0.00138726
0.00143685
0.00145688
0.00146412
0.00146656
0.00146739
0.00146774
0.00146544
0.00138068
0.00130362
0.00123518
0.00117355
0.0011179
0.00106759
0.00102199
0.00098059
0.00094297
0.000908752
0.000877594
0.000849188
0.000823274
0.000799647
0.000778144
0.000758629
0.000740986
0.000725114
0.00071093
0.000698366
0.00068737
0.000677906
0.000669952
0.000663497
0.000658547
0.000655122
0.000653257
0.000653005
0.000654436
0.000657643
0.00066274
0.000669869
0.000679204
0.000690956
0.000705381
0.000722787
0.000743548
0.000768118
0.00079704
0.000830972
0.000870716
0.000917284
0.000971948
0.0010363
0.00111237
0.00120277
0.00131074
0.00144194
0.00146923
0.00146938
0.00146948
0.00146956
0.0014696
0.00146961
0.0014696
0.00146955
0.00146949
0.0014694
0.0014693
0.00146918
0.00146908
0.00146902
0.00146903
0.00146913
0.00146931
0.00125349
0.00104014
0.000874302
0.000746051
0.000644502
0.00056245
0.000495197
0.000439443
0.000392723
0.000353172
0.000319392
0.000290326
0.000265165
0.000243365
0.000223842
0.000208317
0.000189323
0.000175147
0.000149679
7.8513e-05
2.22087e-05
2.48357e-05
1.89793e-05
2.80933e-05
3.4463e-05
6.31525e-05
4.59145e-05
6.78191e-05
6.31457e-05
7.51754e-05
5.88404e-05
1.89458e-05
0.000144084
0.000424609
0.000778133
0.00108094
0.00127997
0.00138745
0.00143699
0.00145699
0.00146422
0.00146666
0.00146749
0.00146784
0.00142069
0.00134209
0.00127151
0.00120779
0.00114979
0.0010971
0.00104922
0.00100563
0.000965887
0.000929619
0.000896496
0.000866222
0.000838536
0.000813212
0.000790066
0.000768944
0.000749719
0.000732282
0.00071654
0.000702416
0.000689849
0.000678789
0.000669201
0.000661064
0.000654367
0.000649113
0.00064532
0.000643018
0.000642253
0.000643088
0.000645604
0.000649906
0.000656117
0.000664394
0.000674923
0.00068793
0.000703685
0.000722517
0.000744818
0.000771062
0.000801821
0.000837795
0.000879851
0.000929077
0.000986841
0.0010549
0.00113559
0.0012317
0.00134741
0.00146911
0.00146929
0.00146943
0.00146953
0.0014696
0.00146963
0.00146963
0.00146961
0.00146956
0.00146949
0.00146941
0.00146932
0.00146925
0.00146922
0.00146925
0.00146936
0.0013911
0.00115328
0.000966656
0.000819725
0.000703669
0.000610958
0.00053545
0.00047302
0.000420858
0.000376889
0.00033951
0.000307481
0.000279841
0.000255865
0.000235078
0.000216515
0.00020228
0.000183613
0.000174074
0.000145417
8.22441e-05
2.14902e-05
2.65994e-05
1.80789e-05
2.62266e-05
3.92305e-05
7.0694e-05
5.34521e-05
8.15485e-05
7.46201e-05
9.12357e-05
6.93557e-05
1.89448e-05
0.00014415
0.000424814
0.000778449
0.00108127
0.00128024
0.00138764
0.00143714
0.00145711
0.00146434
0.00146676
0.00146759
0.00145411
0.00137584
0.00130414
0.00123926
0.00117971
0.00112515
0.0010753
0.00102973
0.000988059
0.000949906
0.000914949
0.000882903
0.000853511
0.000826548
0.000801816
0.000779149
0.000758407
0.000739469
0.000722235
0.00070662
0.00069255
0.000679969
0.000668831
0.000659101
0.000650758
0.000643791
0.000638201
0.000634
0.000631215
0.000629884
0.000630063
0.000631822
0.000635251
0.000640459
0.000647581
0.000656778
0.000668245
0.000682215
0.000698968
0.000718838
0.000742225
0.000769613
0.000801587
0.000838866
0.000882339
0.000933118
0.000992614
0.00106266
0.00114569
0.00124435
0.00136442
0.00146915
0.00146933
0.00146947
0.00146957
0.00146962
0.00146965
0.00146964
0.0014696
0.00146955
0.0014695
0.00146944
0.0014694
0.00146939
0.00146945
0.00146958
0.00124272
0.00104259
0.000885808
0.000759702
0.000657527
0.000574393
0.000505816
0.000448549
0.000400322
0.000359422
0.000324487
0.000294429
0.000268383
0.000245732
0.000226068
0.000208568
0.000195378
0.00017724
0.000171086
0.000140167
8.39778e-05
2.18904e-05
2.93064e-05
1.75269e-05
2.49611e-05
4.7273e-05
7.80863e-05
6.41671e-05
9.8932e-05
9.05152e-05
0.000114081
8.44547e-05
1.89435e-05
0.000144216
0.00042502
0.00077877
0.0010816
0.00128052
0.00138785
0.0014373
0.00145724
0.00146446
0.00146688
0.00146771
0.001402
0.00133056
0.00126549
0.00120556
0.0011501
0.00109899
0.00105198
0.00100878
0.000969066
0.000932544
0.000898944
0.000868022
0.000839558
0.000813359
0.000789252
0.00076709
0.000746746
0.000728111
0.000711092
0.00069561
0.000681599
0.000669004
0.000657783
0.000647903
0.000639342
0.000632087
0.000626139
0.000621505
0.000618207
0.000616277
0.000615761
0.000616719
0.000619228
0.00062338
0.000629289
0.000637094
0.000646958
0.000659076
0.000673683
0.000691057
0.000711527
0.000735489
0.000763419
0.00079589
0.000833603
0.000877417
0.0009284
0.000987892
0.0010576
0.00113966
0.00123644
0.00135569
0.00146918
0.00146937
0.0014695
0.00146959
0.00146964
0.00146965
0.00146964
0.0014696
0.00146956
0.00146953
0.00146951
0.00146954
0.00146962
0.00129829
0.00109325
0.000931521
0.000803228
0.000697381
0.000609268
0.000535883
0.000474388
0.000422483
0.000378419
0.0003408
0.000308481
0.00028052
0.000256169
0.000234931
0.000216444
0.000200015
0.000187588
0.000170165
0.00016616
0.000134036
8.43526e-05
2.34113e-05
3.25928e-05
1.72642e-05
2.42375e-05
5.89121e-05
8.54492e-05
7.88393e-05
0.000120242
0.000112657
0.000147409
0.000107431
1.89419e-05
0.000144283
0.000425228
0.000779095
0.00108194
0.0012808
0.00138807
0.00143747
0.00145739
0.00146459
0.00146701
0.00141851
0.00134913
0.00128492
0.00122574
0.0011705
0.0011191
0.00107143
0.0010273
0.000986505
0.0009488
0.000913958
0.000881761
0.000852008
0.000824514
0.000799114
0.000775662
0.000754028
0.000734101
0.000715782
0.000698987
0.000683645
0.000669695
0.000657086
0.000645777
0.000635739
0.000626948
0.000619393
0.00061307
0.000607983
0.00060415
0.000601595
0.000600357
0.000600484
0.000602041
0.000605104
0.000609768
0.000616147
0.000624377
0.000634617
0.000647059
0.000661928
0.000679489
0.000700056
0.000724002
0.000751771
0.000783892
0.000821
0.000863862
0.0009134
0.000970714
0.00103713
0.00111414
0.00120361
0.001314
0.0014516
0.00146939
0.00146953
0.00146961
0.00146965
0.00146966
0.00146964
0.00146962
0.0014696
0.00146961
0.00146966
0.00129984
0.0011135
0.000955196
0.000827486
0.000723238
0.000635305
0.000560317
0.000496437
0.000442018
0.000395559
0.000355761
0.000321516
0.000291881
0.000266067
0.000243459
0.000223671
0.000206344
0.000190936
0.000179035
0.000162531
0.000159644
0.000127341
8.3936e-05
2.588e-05
3.60441e-05
1.72735e-05
2.39473e-05
7.45279e-05
9.35573e-05
9.87608e-05
0.000146735
0.000144365
0.000197468
0.000143218
1.894e-05
0.00014435
0.000425436
0.000779423
0.00108229
0.0012811
0.0013883
0.00143765
0.00145755
0.00146474
0.00142424
0.00135872
0.00129663
0.00123915
0.0011852
0.00113454
0.00108711
0.00104283
0.00100157
0.000963178
0.0009275
0.000894362
0.000863593
0.000835035
0.000808535
0.000783959
0.00076118
0.000740091
0.000720592
0.000702599
0.000686035
0.000670836
0.000656948
0.000644323
0.000632924
0.000622721
0.000613694
0.000605828
0.000599118
0.000593566
0.000589183
0.000585988
0.000584011
0.000583293
0.000583882
0.000585843
0.000589251
0.000594198
0.000600794
0.000609167
0.000619468
0.000631875
0.000646594
0.000663868
0.00068398
0.000707259
0.000734091
0.000764924
0.000800282
0.000840761
0.000887032
0.00093981
0.000999843
0.00106768
0.00114436
0.00123614
0.00134752
0.00146391
0.00146954
0.00146962
0.00146966
0.00146967
0.00146967
0.00146967
0.00138521
0.00123648
0.00108975
0.000952963
0.000833411
0.000732929
0.000648289
0.00057545
0.000512145
0.000457194
0.000409644
0.00036854
0.000332957
0.00030205
0.000275074
0.000251389
0.000230521
0.000212158
0.000195935
0.000181492
0.000169971
0.000154557
0.000152013
0.000120418
8.31127e-05
2.91018e-05
3.92243e-05
1.75496e-05
2.4e-05
9.45366e-05
0.000102716
0.000124515
0.000178473
0.000190876
0.000275583
0.000203375
1.89377e-05
0.000144417
0.000425646
0.000779754
0.00108264
0.0012814
0.00138854
0.00143785
0.00145771
0.00141874
0.0013585
0.0013
0.00124522
0.0011935
0.00114453
0.00109825
0.00105462
0.0010136
0.000975121
0.000939101
0.000905429
0.000873985
0.000844645
0.000817286
0.000791789
0.000768044
0.000745948
0.00072541
0.000706347
0.000688683
0.000672353
0.000657299
0.000643472
0.00063083
0.000619338
0.000608969
0.0005997
0.000591519
0.000584417
0.000578393
0.000573454
0.000569614
0.000566895
0.000565327
0.00056495
0.000565813
0.000567976
0.00057151
0.000576501
0.000583049
0.000591271
0.000601302
0.000613299
0.000627441
0.000643935
0.000663018
0.000684956
0.000710052
0.000738641
0.000771085
0.000807755
0.000849004
0.000895109
0.000946134
0.00100161
0.00106133
0.00112866
0.00120536
0.00127841
0.0013236
0.00133894
0.00132611
0.00128263
0.00121176
0.00112144
0.00102066
0.000916895
0.000817296
0.000726977
0.000647956
0.000579353
0.000519165
0.000466035
0.000419205
0.000378084
0.000342062
0.000310506
0.000282803
0.000258391
0.000236774
0.000217593
0.000200589
0.000185415
0.000171888
0.000160677
0.000146455
0.000143715
0.00011354
8.2112e-05
3.29938e-05
4.16489e-05
1.81049e-05
2.43649e-05
0.000119647
0.00011339
0.000154498
0.000213268
0.000259363
0.00039953
0.000319214
1.89351e-05
0.000144484
0.000425857
0.000780089
0.001083
0.00128171
0.00138879
0.00143804
0.00140196
0.00134834
0.00129479
0.00124377
0.00119511
0.00114866
0.00110433
0.00106213
0.00102206
0.000984123
0.000948306
0.000914566
0.000882842
0.000853054
0.000825119
0.000798944
0.000774441
0.000751523
0.000730108
0.000710121
0.000691492
0.000674158
0.000658061
0.000643152
0.000629387
0.000616727
0.000605141
0.000594603
0.000585092
0.000576594
0.000569099
0.000562604
0.000557111
0.000552629
0.000549175
0.000546768
0.00054544
0.000545226
0.000546172
0.000548333
0.000551773
0.000556567
0.000562802
0.000570578
0.000580008
0.000591222
0.000604363
0.000619593
0.000637087
0.000657034
0.000679634
0.00070508
0.000733545
0.000765152
0.000799919
0.000837662
0.00087785
0.000919373
0.000960764
0.00100244
0.00104455
0.0010766
0.00108486
0.00106722
0.00103093
0.000980507
0.000918834
0.000849655
0.000775825
0.000702394
0.00063395
0.000572079
0.000516706
0.000467183
0.000422832
0.000383199
0.000347907
0.000316569
0.000288767
0.000264079
0.000242097
0.000222455
0.000204877
0.000189153
0.000174987
0.000162322
0.000151405
0.000138401
0.000135122
0.000106891
8.10692e-05
3.76352e-05
4.2778e-05
1.89815e-05
2.50626e-05
0.000149839
0.000125076
0.000181511
0.000243741
0.000343568
0.000557412
0.000590361
1.89322e-05
0.000144552
0.000426069
0.000780426
0.00108336
0.00128203
0.00138901
0.00137391
0.00132857
0.00128125
0.00123498
0.00119013
0.00114687
0.00110517
0.00106506
0.00102659
0.000989797
0.000954733
0.000921415
0.000889838
0.000859974
0.000831781
0.000805205
0.000780183
0.000756651
0.000734545
0.000713799
0.000694355
0.000676155
0.000659146
0.00064328
0.000628514
0.000614808
0.00060213
0.00059045
0.000579744
0.000569992
0.00056118
0.000553297
0.000546337
0.000540299
0.000535188
0.000531013
0.000527789
0.000525536
0.00052428
0.000524055
0.000524899
0.00052686
0.000529991
0.000534355
0.000540022
0.00054707
0.000555587
0.000565667
0.000577415
0.000590935
0.000606335
0.000623716
0.000643159
0.000664703
0.000688335
0.00071392
0.000741152
0.000769463
0.000797921
0.000824998
0.000848455
0.000868078
0.000883081
0.000886662
0.000873162
0.000844676
0.000806496
0.000761937
0.000712443
0.000659502
0.000605456
0.000553157
0.000504734
0.000460329
0.000419781
0.00038294
0.000349573
0.000319457
0.000292352
0.000267994
0.000246103
0.000226398
0.000208617
0.000192547
0.000178027
0.000164827
0.000152964
0.00014236
0.000130535
0.000126538
0.000100585
8.00757e-05
4.3305e-05
4.21157e-05
2.03224e-05
2.60339e-05
0.00018195
0.000135969
0.000199636
0.000265196
0.000405326
0.000650418
0.00117313
1.8929e-05
0.00014462
0.000426282
0.000780766
0.00108373
0.00128229
0.00133484
0.00129965
0.00125967
0.00121937
0.001179
0.00113943
0.00110088
0.00106339
0.00102704
0.000991924
0.00095812
0.000925696
0.000894697
0.000865143
0.000837034
0.000810356
0.000785078
0.000761164
0.00073857
0.00071725
0.000697155
0.00067824
0.000660458
0.000643767
0.000628126
0.000613498
0.00059985
0.000587152
0.000575379
0.000564508
0.00055452
0.0005454
0.000537138
0.000529724
0.000523156
0.000517435
0.000512563
0.000508551
0.000505411
0.00050316
0.000501821
0.000501419
0.000501989
0.000503564
0.000506189
0.000509908
0.000514774
0.00052084
0.000528166
0.000536809
0.000546826
0.000558265
0.00057116
0.000585516
0.000601299
0.000618407
0.000636637
0.000655634
0.000674844
0.000693454
0.000710193
0.000723929
0.000733364
0.00073755
0.000734931
0.000723843
0.000703006
0.000673896
0.000639744
0.000602517
0.00056332
0.00052326
0.000483484
0.000445439
0.000409932
0.000376944
0.00034648
0.000318506
0.000292924
0.000269596
0.00024836
0.00022904
0.000211448
0.000195401
0.000180743
0.000167355
0.000155078
0.000143952
0.000133698
0.000122964
0.000118203
9.46895e-05
7.92099e-05
5.05591e-05
3.93258e-05
2.25334e-05
2.72716e-05
0.000197963
0.000142762
0.000205817
0.000275761
0.000435028
0.000672255
0.00112575
1.89254e-05
0.000144688
0.000426494
0.000781107
0.00108409
0.00128239
0.00126212
0.0012304
0.0011972
0.00116222
0.00112681
0.00109176
0.00105728
0.00102347
0.000990458
0.000958346
0.000927239
0.00089722
0.00086835
0.000840669
0.000814199
0.000788943
0.000764895
0.000742034
0.000720335
0.000699769
0.0006803
0.000661894
0.000644516
0.000628132
0.000612708
0.000598213
0.000584621
0.000571904
0.000560039
0.000549007
0.00053879
0.000529372
0.000520742
0.000512891
0.000505814
0.000499506
0.000493969
0.000489206
0.000485224
0.000482033
0.000479646
0.000478081
0.000477355
0.000477493
0.00047852
0.000480464
0.000483355
0.000487223
0.000492099
0.00049801
0.000504976
0.000513007
0.000522094
0.000532196
0.000543236
0.000555074
0.000567483
0.000580118
0.000592489
0.00060389
0.000613383
0.000620545
0.000624446
0.000623925
0.000618317
0.000607659
0.000591399
0.00056953
0.000543334
0.000514427
0.000484215
0.00045358
0.000423241
0.000393535
0.000365108
0.000338418
0.000313402
0.00029004
0.000268396
0.000248407
0.000229978
0.000213
0.000197354
0.000182916
0.000169573
0.000157251
0.000145846
0.000135392
0.000125532
0.000115763
0.000110295
8.92443e-05
7.85571e-05
6.0235e-05
3.43657e-05
2.67463e-05
2.89128e-05
0.000172983
0.00014099
0.00020034
0.000272998
0.000438033
0.000707467
0.000880978
1.89215e-05
0.000144755
0.000426707
0.000781448
0.0010843
0.00121846
0.0011949
0.00116792
0.00114006
0.00110945
0.00107823
0.00104705
0.00101608
0.000985495
0.000955421
0.000925986
0.000897301
0.000869459
0.000842531
0.000816572
0.000791617
0.000767688
0.00074479
0.000722922
0.000702071
0.000682221
0.000663348
0.000645429
0.000628438
0.000612347
0.000597131
0.000582764
0.000569224
0.000556487
0.000544535
0.000533348
0.000522909
0.000513206
0.000504225
0.000495956
0.000488392
0.000481529
0.000475362
0.000469892
0.000465119
0.00046105
0.000457689
0.000455046
0.00045313
0.000451953
0.000451529
0.000451873
0.000452997
0.000454916
0.000457639
0.000461173
0.000465514
0.000470648
0.00047654
0.000483125
0.000490308
0.00049794
0.0005058
0.000513587
0.000520904
0.000527088
0.000531773
0.000534603
0.000534959
0.000531923
0.000525438
0.000515611
0.000502288
0.000485355
0.000465263
0.000442902
0.000419219
0.000395119
0.000371312
0.000348067
0.000325453
0.000303881
0.000283449
0.0002641
0.000245878
0.000228827
0.000212905
0.00019805
0.00018419
0.00017124
0.000159123
0.000147801
0.000137202
0.000127377
0.000117944
0.000108989
0.000102941
8.42707e-05
7.82191e-05
7.18471e-05
2.71464e-05
3.97789e-05
2.99883e-05
0.000114453
0.000138072
0.000189238
0.000267362
0.000446991
0.000832049
0.000889612
1.89173e-05
0.000144823
0.00042692
0.00078178
0.00108428
0.00115498
0.00113417
0.00111187
0.00108763
0.0010607
0.00103304
0.00100515
0.000977234
0.00094946
0.000921981
0.000894924
0.000868407
0.000842525
0.000817359
0.000792973
0.000769412
0.000746709
0.000724883
0.000703943
0.000683889
0.000664713
0.000646405
0.000628947
0.000612322
0.00059651
0.000581492
0.000567247
0.000553756
0.000541001
0.000528964
0.000517629
0.00050698
0.000497004
0.00048769
0.000479026
0.000471004
0.000463618
0.000456861
0.00045073
0.000445224
0.000440342
0.000436084
0.000432454
0.000429454
0.000427089
0.000425362
0.000424278
0.00042384
0.000424049
0.000424902
0.00042639
0.000428498
0.000431196
0.000434437
0.000438149
0.000442233
0.000446548
0.0004509
0.000455036
0.000458633
0.00046116
0.000462718
0.000462739
0.000460851
0.000456538
0.000449908
0.00044098
0.000429891
0.000416487
0.000400928
0.000383623
0.000365114
0.00034608
0.000327076
0.000308517
0.00029049
0.000273033
0.00025639
0.000240505
0.000225295
0.000210845
0.000197162
0.000184222
0.000171997
0.000160426
0.000149449
0.000139055
0.000129208
0.000119974
0.000110985
0.000102686
9.62091e-05
7.9764e-05
7.81032e-05
7.15736e-05
1.83571e-05
6.59874e-05
2.76898e-05
7.2993e-05
0.000130576
0.000176112
0.00026071
0.000459481
0.00101161
0.00128538
1.89128e-05
0.00014489
0.000427132
0.000782101
0.0010841
0.00109678
0.00107897
0.00106099
0.00103946
0.00101563
0.000990997
0.000965936
0.000940656
0.000915345
0.000890151
0.000865203
0.000840619
0.000816498
0.000792925
0.000769969
0.000747683
0.000726109
0.000705275
0.000685197
0.000665886
0.000647343
0.000629563
0.00061254
0.00059626
0.000580712
0.00056588
0.00055175
0.000538306
0.000525533
0.000513416
0.000501941
0.000491094
0.000480863
0.000471235
0.000462201
0.000453751
0.000445877
0.000438573
0.000431832
0.00042565
0.000420023
0.000414948
0.000410423
0.000406447
0.000403017
0.000400131
0.000397788
0.000395982
0.000394707
0.000393951
0.0003937
0.000393928
0.000394601
0.000395668
0.00039706
0.000398684
0.000400418
0.000402101
0.000403532
0.000404432
0.00040444
0.000403847
0.00040221
0.000398997
0.000394118
0.000387686
0.000379737
0.000370325
0.000359476
0.000347262
0.000333812
0.000319403
0.000304449
0.000289323
0.000274399
0.000259888
0.000245717
0.000232083
0.000219082
0.000206527
0.000194395
0.000182727
0.000171526
0.000160793
0.000150494
0.000140576
0.000131048
0.000121907
0.00011323
0.000104688
9.6889e-05
9.01231e-05
7.56593e-05
7.75092e-05
4.45505e-05
9.48797e-06
3.75742e-05
1.6979e-05
5.61573e-05
8.95102e-05
0.00016177
0.000238387
0.000421849
0.00077538
0.00141746
1.89079e-05
0.000144958
0.000427342
0.000782367
0.00105837
0.00104441
0.00102882
0.00101435
0.000995105
0.00097392
0.000951876
0.000929247
0.000906261
0.000883103
0.00085992
0.000836839
0.000813976
0.000791432
0.000769294
0.000747634
0.000726511
0.000705972
0.00068605
0.00066677
0.000648149
0.000630194
0.000612908
0.000596291
0.000580335
0.000565034
0.000550378
0.000536356
0.000522956
0.000510167
0.000497975
0.000486369
0.000475337
0.000464866
0.000454947
0.000445569
0.000436723
0.000428399
0.000420591
0.000413291
0.000406492
0.00040019
0.000394377
0.000389049
0.000384201
0.000379827
0.000375922
0.000372478
0.000369487
0.000366937
0.000364814
0.000363098
0.000361762
0.00036077
0.000360075
0.000359616
0.00035931
0.000359058
0.000358737
0.000358203
0.000357141
0.000355509
0.000353484
0.0003508
0.000346839
0.000341877
0.000335824
0.000328812
0.000320844
0.00031195
0.000302181
0.000291607
0.000280377
0.000268689
0.000256768
0.000244851
0.000233138
0.000221735
0.000210524
0.000199758
0.000189461
0.000179393
0.000169546
0.000159936
0.000150576
0.00014145
0.000132515
0.000123808
0.000115331
0.000107183
9.90762e-05
9.16493e-05
8.47467e-05
7.17603e-05
7.53984e-05
1.8842e-05
8.78694e-06
3.61813e-05
1.49721e-05
7.45302e-05
5.64259e-05
0.000167795
0.00019915
0.000335112
0.000473148
0.00103141
1.89027e-05
0.000145024
0.00042755
0.00078242
0.00101119
0.000997183
0.000983766
0.000971525
0.000954268
0.000935327
0.000915485
0.000894948
0.000873952
0.000852675
0.000831258
0.000809827
0.000788495
0.000767362
0.000746515
0.000726027
0.000705961
0.000686366
0.000667281
0.000648735
0.00063075
0.00061334
0.000596513
0.000580273
0.00056462
0.00054955
0.000535058
0.000521138
0.00050778
0.000494976
0.000482715
0.000470988
0.000459784
0.000449093
0.000438905
0.00042921
0.000419999
0.000411265
0.000402997
0.000395189
0.000387834
0.000380923
0.00037445
0.000368408
0.000362789
0.000357587
0.000352793
0.000348398
0.00034439
0.000340758
0.000337484
0.000334548
0.000331925
0.000329582
0.000327474
0.000325555
0.000323756
0.000321997
0.000320186
0.000318224
0.000315829
0.000313107
0.000310186
0.000306799
0.000302556
0.00029768
0.000292132
0.000285979
0.000279239
0.000271914
0.000264053
0.000255684
0.000246884
0.000237752
0.000228427
0.000219035
0.0002097
0.000200533
0.000191524
0.000182584
0.000174031
0.00016578
0.000157556
0.000149409
0.000141317
0.000133278
0.000125273
0.000117347
0.000109499
0.000101858
9.41645e-05
8.70478e-05
8.0206e-05
6.83041e-05
7.1516e-05
1.41306e-05
1.61968e-05
2.46515e-05
1.9358e-05
6.59778e-05
5.47936e-05
0.000189821
0.000164501
0.000270464
0.000327143
0.000521602
1.88973e-05
0.000145091
0.000427751
0.000782303
0.000966958
0.000954429
0.00094309
0.00093224
0.000916668
0.000899617
0.00088164
0.0008629
0.000843627
0.000823992
0.000804127
0.000784154
0.000764182
0.000744309
0.000724621
0.000705191
0.000686082
0.000667346
0.000649025
0.000631152
0.000613753
0.000596845
0.000580443
0.000564553
0.00054918
0.000534325
0.000519987
0.000506162
0.000492844
0.000480027
0.000467704
0.000455866
0.000444504
0.000433611
0.000423176
0.000413193
0.000403651
0.000394542
0.00038586
0.000377595
0.00036974
0.000362288
0.000355229
0.000348558
0.000342265
0.000336343
0.000330782
0.000325573
0.000320703
0.000316161
0.00031193
0.000307992
0.000304321
0.000300893
0.000297671
0.000294613
0.000291675
0.000288792
0.000285892
0.000282909
0.000279624
0.000276175
0.000272741
0.000268971
0.000264665
0.000259986
0.000254951
0.000249583
0.000243873
0.000237846
0.000231512
0.000224883
0.000217993
0.000210888
0.000203642
0.000196326
0.000189006
0.000181739
0.000174591
0.000167412
0.000160286
0.000153464
0.000146728
0.000139883
0.000132972
0.000125966
0.00011885
0.000111674
0.000104427
9.72725e-05
8.99594e-05
8.31212e-05
7.63832e-05
6.53816e-05
6.7828e-05
1.53248e-05
2.40114e-05
2.03309e-05
2.80042e-05
6.13802e-05
6.35003e-05
0.000190361
0.000142668
0.00023341
0.000256444
0.000352367
1.88915e-05
0.000145157
0.000427946
0.000782068
0.00092648
0.000915535
0.00090607
0.000896167
0.000882021
0.00086656
0.000850162
0.000832965
0.000815186
0.000796983
0.000778481
0.000759796
0.000741032
0.000722284
0.000703634
0.000685157
0.000666913
0.000648957
0.000631332
0.000614073
0.00059721
0.000580764
0.000564752
0.000549186
0.000534073
0.000519418
0.000505222
0.000491486
0.000478206
0.000465379
0.000453
0.000441061
0.000429557
0.000418479
0.000407822
0.000397576
0.000387735
0.000378292
0.000369237
0.000360565
0.000352267
0.000344335
0.000336763
0.000329542
0.000322665
0.000316124
0.000309908
0.00030401
0.000298418
0.000293119
0.000288101
0.000283348
0.00027884
0.000274553
0.000270463
0.000266537
0.00026274
0.000259028
0.00025535
0.00025166
0.000247789
0.000243918
0.000240167
0.000236241
0.000231999
0.000227603
0.000223055
0.000218387
0.000213557
0.000208601
0.00020351
0.000198279
0.000192921
0.000187447
0.000181891
0.000176281
0.00017065
0.000165019
0.000159417
0.000153865