/*--------------------------------*- C++ -*----------------------------------*\
| =========                 |                                                 |
| \\      /  F ield         | OpenFOAM: The Open Source CFD Toolbox           |
|  \\    /   O peration     | Version:  v2106                                 |
|   \\  /    A nd           | Website:  www.openfoam.com                      |
|    \\/     M anipulation  |                                                 |
\*---------------------------------------------------------------------------*/
FoamFile
{
    version     2.0;
    format      ascii;
    arch        "LSB;label=32;scalar=64";
    class       volScalarField;
    location    "0.9";
    object      omega;
}
// * * * * * * * * * * * * * * * * * * * * * * * * * * * * * * * * * * * * * //

dimensions      [0 0 -1 0 0 0 0];

internalField   nonuniform List<scalar> 
29678
(
6.9697
1.34147
0.487148
0.270968
0.196455
0.16642
0.153755
0.148567
0.14659
0.145907
0.145697
0.145644
0.145638
0.145646
0.145658
0.145671
0.145686
0.145701
0.145718
0.145735
0.145753
0.145772
0.145791
0.145812
0.145833
0.145855
0.145878
0.145902
0.145926
0.145951
0.145976
0.146002
0.146028
0.146054
0.14608
0.146107
0.146132
0.146158
0.146182
0.146206
0.146228
0.146249
0.146268
0.146286
0.146301
0.146314
0.146325
0.146333
0.146337
0.146339
0.146338
0.146333
0.146325
0.146314
0.146299
0.146281
0.146259
0.146235
0.146207
0.146176
0.146143
0.146108
0.146072
0.146035
0.145998
0.145963
0.145927
0.145893
0.14586
0.145829
0.1458
0.145774
0.14575
0.14573
0.145714
0.145704
0.145699
0.145701
0.145712
0.145732
0.145763
0.145807
0.145866
0.145941
0.146035
0.146149
0.146285
0.146445
0.14663
0.14684
0.147077
0.147339
0.14763
0.147985
0.14867
0.150879
0.160232
0.190539
0.368943
1.39191
0.983497
0.961563
0.616965
0.482457
0.367727
0.359027
0.366323
0.388163
0.413763
0.466314
6.96968
1.34117
0.48704
0.270923
0.196437
0.166415
0.153758
0.148575
0.146603
0.145923
0.145716
0.145667
0.145665
0.145677
0.145693
0.145711
0.145731
0.145751
0.145773
0.145796
0.14582
0.145846
0.145873
0.145901
0.145931
0.145962
0.145994
0.146027
0.146062
0.146097
0.146133
0.14617
0.146207
0.146244
0.146281
0.146318
0.146354
0.146389
0.146422
0.146454
0.146484
0.146512
0.146537
0.146559
0.146577
0.146592
0.146603
0.146609
0.146612
0.146609
0.146602
0.146591
0.146574
0.146553
0.146527
0.146497
0.146464
0.146426
0.146385
0.146342
0.146296
0.146248
0.146199
0.146151
0.146104
0.146058
0.146013
0.14597
0.145929
0.145891
0.145855
0.145823
0.145795
0.145771
0.145753
0.145742
0.145738
0.145743
0.145758
0.145786
0.145829
0.145892
0.145976
0.146085
0.146221
0.146386
0.146582
0.146813
0.147079
0.147383
0.147723
0.148101
0.148518
0.148992
0.149691
0.151343
0.158312
0.181988
0.312584
1.12047
0.875654
0.905684
0.623058
0.528213
0.400663
0.386237
0.34805
0.310624
0.252887
0.197496
6.96982
1.34074
0.486874
0.270852
0.196405
0.166404
0.153758
0.148582
0.146614
0.145937
0.145733
0.145686
0.145688
0.145703
0.145723
0.145744
0.145768
0.145793
0.14582
0.145849
0.145879
0.145911
0.145945
0.145981
0.146019
0.146058
0.146098
0.14614
0.146183
0.146227
0.146272
0.146317
0.146363
0.146408
0.146453
0.146497
0.146541
0.146583
0.146623
0.146662
0.146697
0.14673
0.14676
0.146785
0.146807
0.146824
0.146837
0.146844
0.146846
0.146843
0.146834
0.146819
0.146798
0.146772
0.14674
0.146702
0.14666
0.146613
0.146562
0.146507
0.14645
0.146391
0.146331
0.146272
0.146215
0.146159
0.146105
0.146052
0.146003
0.145956
0.145913
0.145874
0.145841
0.145813
0.145792
0.145778
0.145774
0.14578
0.145798
0.14583
0.145882
0.145955
0.14605
0.146173
0.146324
0.146507
0.146724
0.146977
0.147267
0.147597
0.147968
0.148383
0.148842
0.149362
0.150048
0.151376
0.156772
0.175903
0.284567
0.948809
0.754677
0.847678
0.607863
0.537167
0.387263
0.388555
0.342384
0.309538
0.249798
0.195267
6.96991
1.34025
0.486685
0.27077
0.196368
0.166389
0.153756
0.148587
0.146623
0.145948
0.145746
0.145701
0.145704
0.145721
0.145743
0.145767
0.145793
0.145821
0.145851
0.145883
0.145916
0.145952
0.145989
0.146028
0.146068
0.14611
0.146154
0.146198
0.146244
0.14629
0.146337
0.146385
0.146432
0.14648
0.146527
0.146574
0.146619
0.146663
0.146705
0.146745
0.146783
0.146817
0.146848
0.146875
0.146898
0.146917
0.14693
0.146938
0.146941
0.146938
0.14693
0.146915
0.146895
0.146868
0.146836
0.146798
0.146755
0.146707
0.146655
0.146598
0.146538
0.146477
0.146414
0.146352
0.146291
0.14623
0.146171
0.146113
0.146058
0.146006
0.145958
0.145914
0.145877
0.145846
0.145823
0.145808
0.145803
0.145809
0.145829
0.145864
0.145918
0.145994
0.146094
0.146221
0.146379
0.146569
0.146793
0.147056
0.147358
0.147702
0.14809
0.148525
0.149008
0.149555
0.150215
0.151353
0.155426
0.171043
0.260509
0.803542
0.663982
0.749919
0.576887
0.504961
0.372808
0.381969
0.330339
0.30286
0.249279
0.201901
6.9699
1.33974
0.486487
0.270685
0.19633
0.166374
0.153753
0.148591
0.14663
0.145958
0.145757
0.145713
0.145716
0.145734
0.145757
0.145782
0.14581
0.145839
0.14587
0.145903
0.145938
0.145974
0.146012
0.146052
0.146093
0.146136
0.14618
0.146225
0.146271
0.146318
0.146365
0.146413
0.146461
0.146509
0.146557
0.146604
0.14665
0.146695
0.146737
0.146778
0.146816
0.146851
0.146883
0.146911
0.146935
0.146955
0.146969
0.146979
0.146983
0.146981
0.146973
0.14696
0.14694
0.146915
0.146884
0.146847
0.146804
0.146757
0.146705
0.146649
0.146589
0.146527
0.146465
0.146402
0.14634
0.146278
0.146216
0.146156
0.146098
0.146043
0.145992
0.145946
0.145907
0.145874
0.14585
0.145835
0.14583
0.145838
0.14586
0.145897
0.145955
0.146036
0.146142
0.146276
0.146442
0.146641
0.146878
0.147154
0.147472
0.147835
0.148245
0.148705
0.149216
0.149792
0.150439
0.151476
0.154494
0.167017
0.241523
0.690477
0.580646
0.67253
0.55166
0.46735
0.350338
0.363673
0.31435
0.295101
0.245301
0.201796
6.96979
1.33922
0.486287
0.270599
0.196292
0.16636
0.153751
0.148595
0.146638
0.145967
0.145767
0.145724
0.145728
0.145746
0.145769
0.145795
0.145823
0.145852
0.145884
0.145917
0.145952
0.145989
0.146027
0.146067
0.146109
0.146152
0.146196
0.146241
0.146288
0.146335
0.146383
0.146432
0.14648
0.146529
0.146577
0.146625
0.146672
0.146717
0.146761
0.146803
0.146842
0.146879
0.146912
0.146941
0.146967
0.146988
0.147004
0.147015
0.14702
0.14702
0.147014
0.147002
0.146984
0.14696
0.146929
0.146893
0.146852
0.146805
0.146753
0.146697
0.146637
0.146575
0.146512
0.146449
0.146385
0.146321
0.146258
0.146196
0.146136
0.146079
0.146026
0.145979
0.145937
0.145904
0.145879
0.145865
0.145862
0.145872
0.145896
0.145937
0.146
0.146087
0.146202
0.146346
0.146523
0.146736
0.146988
0.147281
0.14762
0.148006
0.148444
0.148934
0.149478
0.150088
0.150738
0.151728
0.153977
0.164018
0.226239
0.598622
0.509722
0.609081
0.527931
0.417991
0.324614
0.341256
0.297013
0.285034
0.24056
0.201732
6.96958
1.3387
0.486088
0.270514
0.196255
0.166347
0.153751
0.148601
0.146647
0.145978
0.145778
0.145735
0.145739
0.145758
0.145781
0.145807
0.145835
0.145865
0.145897
0.14593
0.145965
0.146002
0.146041
0.146081
0.146123
0.146167
0.146211
0.146257
0.146304
0.146352
0.146401
0.14645
0.146499
0.146549
0.146598
0.146647
0.146695
0.146742
0.146787
0.146831
0.146872
0.14691
0.146945
0.146976
0.147004
0.147026
0.147045
0.147058
0.147065
0.147067
0.147063
0.147052
0.147036
0.147013
0.146984
0.146949
0.146908
0.146862
0.14681
0.146754
0.146694
0.146631
0.146567
0.146503
0.146438
0.146372
0.146307
0.146243
0.14618
0.146121
0.146067
0.146017
0.145975
0.14594
0.145915
0.145901
0.1459
0.145913
0.145941
0.145987
0.146056
0.146152
0.146277
0.146433
0.146624
0.146853
0.147123
0.147438
0.147801
0.148216
0.148686
0.149213
0.149797
0.15045
0.151123
0.15212
0.153874
0.162323
0.215162
0.523106
0.452896
0.558197
0.509686
0.370252
0.300478
0.316143
0.277781
0.270994
0.232688
0.198786
6.96925
1.33817
0.485891
0.270431
0.19622
0.166335
0.153752
0.148609
0.146658
0.14599
0.145791
0.145748
0.145752
0.145771
0.145794
0.14582
0.145848
0.145878
0.14591
0.145944
0.145979
0.146017
0.146056
0.146096
0.146139
0.146182
0.146228
0.146274
0.146322
0.146371
0.14642
0.14647
0.146521
0.146572
0.146622
0.146673
0.146722
0.146771
0.146818
0.146863
0.146906
0.146946
0.146983
0.147017
0.147047
0.147072
0.147092
0.147108
0.147118
0.147122
0.14712
0.147112
0.147098
0.147077
0.14705
0.147016
0.146976
0.14693
0.146879
0.146823
0.146762
0.146699
0.146635
0.146568
0.146501
0.146434
0.146366
0.1463
0.146235
0.146174
0.146117
0.146066
0.146022
0.145986
0.145961
0.145948
0.145948
0.145964
0.145997
0.14605
0.146127
0.146232
0.146369
0.146539
0.146746
0.146994
0.147286
0.147626
0.148019
0.148468
0.148977
0.149548
0.150183
0.150891
0.151611
0.152672
0.154151
0.16178
0.207665
0.461756
0.408901
0.517665
0.497144
0.327294
0.278584
0.290979
0.258818
0.25566
0.223743
0.194808
6.96882
1.33764
0.485695
0.27035
0.196186
0.166325
0.153755
0.148618
0.14667
0.146003
0.145805
0.145762
0.145766
0.145785
0.145809
0.145835
0.145863
0.145893
0.145925
0.145959
0.145995
0.146032
0.146072
0.146113
0.146156
0.1462
0.146246
0.146293
0.146342
0.146391
0.146442
0.146493
0.146545
0.146597
0.146649
0.146701
0.146753
0.146803
0.146852
0.146899
0.146945
0.146988
0.147027
0.147064
0.147096
0.147124
0.147148
0.147166
0.147179
0.147186
0.147187
0.147182
0.14717
0.147152
0.147126
0.147095
0.147056
0.147011
0.146961
0.146905
0.146844
0.146781
0.146716
0.146648
0.146579
0.146508
0.146438
0.14637
0.146303
0.146239
0.14618
0.146127
0.146082
0.146045
0.14602
0.146007
0.146009
0.146028
0.146067
0.146128
0.146215
0.146331
0.146481
0.146667
0.146893
0.147163
0.147481
0.147852
0.14828
0.14877
0.149326
0.149951
0.150649
0.151429
0.152223
0.153397
0.154755
0.162074
0.202839
0.413542
0.374965
0.485141
0.490321
0.292986
0.259924
0.267567
0.240513
0.239207
0.212503
0.189625
6.96827
1.33711
0.485501
0.270271
0.196155
0.166317
0.153759
0.148629
0.146684
0.146018
0.14582
0.145777
0.145782
0.145801
0.145825
0.145851
0.145879
0.14591
0.145942
0.145976
0.146012
0.14605
0.14609
0.146132
0.146175
0.14622
0.146267
0.146315
0.146364
0.146415
0.146467
0.146519
0.146573
0.146626
0.14668
0.146734
0.146787
0.14684
0.146891
0.146941
0.146989
0.147035
0.147078
0.147117
0.147153
0.147185
0.147212
0.147234
0.14725
0.147261
0.147265
0.147263
0.147255
0.147239
0.147216
0.147187
0.14715
0.147107
0.147058
0.147002
0.146942
0.14688
0.146814
0.146744
0.146672
0.146599
0.146526
0.146455
0.146386
0.14632
0.146259
0.146204
0.146157
0.14612
0.146095
0.146083
0.146087
0.14611
0.146155
0.146226
0.146323
0.146453
0.146617
0.146821
0.147069
0.147365
0.147714
0.148121
0.148591
0.149129
0.149742
0.150433
0.15121
0.152081
0.152981
0.154309
0.15566
0.162978
0.199966
0.376671
0.348461
0.458848
0.487211
0.267411
0.244313
0.246466
0.223682
0.222132
0.200408
0.183392
6.96762
1.33658
0.48531
0.270194
0.196125
0.166311
0.153765
0.148641
0.146699
0.146035
0.145837
0.145794
0.145799
0.145818
0.145842
0.145869
0.145897
0.145928
0.14596
0.145995
0.146031
0.14607
0.14611
0.146152
0.146196
0.146242
0.14629
0.146339
0.146389
0.146441
0.146494
0.146548
0.146603
0.146659
0.146715
0.146771
0.146826
0.146881
0.146936
0.146988
0.14704
0.147089
0.147135
0.147178
0.147218
0.147253
0.147285
0.147311
0.147331
0.147346
0.147355
0.147357
0.147352
0.14734
0.147321
0.147294
0.147261
0.14722
0.147172
0.147118
0.147059
0.146997
0.14693
0.14686
0.146786
0.146711
0.146634
0.146559
0.146487
0.146419
0.146356
0.1463
0.146251
0.146214
0.146188
0.146178
0.146186
0.146214
0.146267
0.146348
0.146458
0.146602
0.146784
0.147009
0.147282
0.147608
0.147993
0.148441
0.14896
0.149555
0.150235
0.151008
0.151882
0.152868
0.153911
0.15543
0.15687
0.164371
0.198564
0.34883
0.327454
0.437546
0.485987
0.249267
0.23145
0.227878
0.208985
0.205969
0.188336
0.175311
6.96685
1.33605
0.48512
0.270119
0.196097
0.166306
0.153773
0.148655
0.146716
0.146053
0.145855
0.145813
0.145818
0.145837
0.145861
0.145888
0.145917
0.145948
0.145981
0.146016
0.146053
0.146092
0.146132
0.146175
0.14622
0.146267
0.146315
0.146365
0.146417
0.14647
0.146525
0.14658
0.146637
0.146695
0.146753
0.146811
0.14687
0.146928
0.146985
0.147041
0.147096
0.147149
0.147199
0.147247
0.147291
0.147331
0.147367
0.147398
0.147424
0.147444
0.147457
0.147464
0.147464
0.147457
0.147442
0.147419
0.147389
0.147351
0.147306
0.147254
0.147197
0.147136
0.147069
0.146998
0.146923
0.146846
0.146767
0.146688
0.146612
0.146541
0.146476
0.146418
0.146369
0.146331
0.146307
0.146299
0.146311
0.146346
0.146408
0.1465
0.146624
0.146784
0.146986
0.147235
0.147537
0.147898
0.148324
0.14882
0.149396
0.150059
0.15082
0.151691
0.152686
0.153814
0.155039
0.156782
0.158398
0.166206
0.198333
0.327929
0.310712
0.420217
0.485248
0.236216
0.220604
0.212112
0.196493
0.191609
0.177342
0.167227
6.96597
1.33552
0.484933
0.270046
0.196071
0.166303
0.153782
0.148672
0.146735
0.146072
0.145875
0.145833
0.145839
0.145858
0.145882
0.145909
0.145939
0.14597
0.146003
0.146038
0.146076
0.146115
0.146157
0.1462
0.146246
0.146293
0.146343
0.146394
0.146447
0.146502
0.146558
0.146616
0.146675
0.146735
0.146795
0.146856
0.146918
0.146979
0.14704
0.1471
0.147159
0.147216
0.147271
0.147324
0.147373
0.147419
0.14746
0.147497
0.147529
0.147554
0.147574
0.147587
0.147593
0.147591
0.147582
0.147564
0.147538
0.147504
0.147463
0.147414
0.14736
0.1473
0.147235
0.147164
0.147088
0.14701
0.14693
0.146849
0.146769
0.146693
0.146625
0.146565
0.146516
0.146479
0.146457
0.146453
0.146471
0.146513
0.146585
0.146689
0.146829
0.147009
0.147234
0.14751
0.147845
0.148245
0.148718
0.14927
0.149912
0.150655
0.151513
0.152503
0.153644
0.154945
0.1564
0.158356
0.160232
0.168481
0.199114
0.31249
0.297533
0.405635
0.484321
0.226697
0.211448
0.199651
0.186208
0.17978
0.168474
0.160717
6.96499
1.33499
0.484749
0.269975
0.196047
0.166303
0.153797
0.14869
0.146752
0.14609
0.145895
0.145855
0.145861
0.14588
0.145905
0.145932
0.145962
0.145993
0.146027
0.146063
0.146101
0.146141
0.146183
0.146228
0.146274
0.146323
0.146373
0.146426
0.146481
0.146537
0.146595
0.146655
0.146716
0.146778
0.146842
0.146906
0.146971
0.147036
0.147101
0.147165
0.147229
0.147291
0.147351
0.14741
0.147465
0.147517
0.147565
0.147608
0.147647
0.14768
0.147707
0.147727
0.14774
0.147745
0.147742
0.147731
0.147712
0.147683
0.147647
0.147603
0.147553
0.147496
0.147432
0.147362
0.147287
0.147208
0.147127
0.147046
0.146965
0.146887
0.146814
0.146752
0.146703
0.146668
0.146649
0.14665
0.146674
0.146726
0.146809
0.146927
0.147084
0.147286
0.147537
0.147845
0.148217
0.148662
0.149188
0.149805
0.150524
0.15136
0.152332
0.153465
0.154782
0.156295
0.158002
0.160166
0.162392
0.171213
0.200846
0.301717
0.287556
0.390914
0.483344
0.220045
0.204083
0.190549
0.17845
0.171055
0.162274
0.15635
6.96389
1.33447
0.484567
0.269907
0.196025
0.166312
0.153817
0.148704
0.146767
0.14611
0.145917
0.145878
0.145884
0.145904
0.145929
0.145957
0.145987
0.146019
0.146053
0.146089
0.146128
0.146169
0.146212
0.146257
0.146304
0.146354
0.146406
0.14646
0.146517
0.146575
0.146635
0.146697
0.146761
0.146826
0.146893
0.146961
0.147029
0.147098
0.147168
0.147237
0.147306
0.147374
0.14744
0.147505
0.147567
0.147626
0.147682
0.147734
0.14778
0.147822
0.147857
0.147886
0.147908
0.147922
0.147927
0.147925
0.147913
0.147892
0.147862
0.147825
0.147781
0.147728
0.147668
0.147601
0.147528
0.14745
0.147369
0.147288
0.147207
0.14713
0.147057
0.146993
0.146942
0.146909
0.146895
0.146902
0.146934
0.146996
0.147092
0.147226
0.147403
0.147629
0.14791
0.148254
0.148669
0.149164
0.149751
0.150441
0.151249
0.152193
0.153302
0.154604
0.156131
0.157879
0.159824
0.162239
0.164912
0.174433
0.203532
0.295301
0.280649
0.378988
0.48199
0.215804
0.198453
0.184183
0.173455
0.165719
0.158605
0.153305
6.96268
1.33394
0.484388
0.26984
0.196007
0.166341
0.153831
0.148709
0.14678
0.14613
0.145941
0.145902
0.14591
0.14593
0.145955
0.145983
0.146014
0.146046
0.146081
0.146118
0.146157
0.146198
0.146242
0.146289
0.146337
0.146388
0.146442
0.146497
0.146556
0.146616
0.146678
0.146743
0.14681
0.146878
0.146948
0.14702
0.147093
0.147167
0.147241
0.147316
0.147391
0.147465
0.147539
0.147611
0.147681
0.147748
0.147813
0.147874
0.14793
0.147982
0.148028
0.148067
0.148099
0.148124
0.14814
0.148148
0.148146
0.148135
0.148114
0.148086
0.14805
0.148004
0.14795
0.147888
0.147819
0.147745
0.147667
0.147587
0.147508
0.147432
0.147363
0.147301
0.147252
0.147221
0.14721
0.147225
0.147268
0.147342
0.147452
0.147605
0.147804
0.148058
0.148372
0.148756
0.149218
0.149771
0.150426
0.1512
0.15211
0.153181
0.154448
0.15595
0.157715
0.15967
0.161888
0.164605
0.167831
0.178168
0.207065
0.291984
0.276744
0.371696
0.475257
0.212601
0.194972
0.180994
0.170977
0.163136
0.156863
0.151969
6.96137
1.33342
0.484212
0.269777
0.196017
0.166371
0.153832
0.148707
0.146792
0.14615
0.145965
0.145929
0.145936
0.145957
0.145983
0.146011
0.146042
0.146075
0.14611
0.146148
0.146188
0.14623
0.146275
0.146322
0.146372
0.146425
0.14648
0.146537
0.146597
0.14666
0.146725
0.146793
0.146862
0.146934
0.147008
0.147084
0.147162
0.147241
0.147321
0.147402
0.147484
0.147566
0.147647
0.147728
0.147807
0.147884
0.147959
0.148031
0.148099
0.148162
0.14822
0.148272
0.148317
0.148355
0.148385
0.148405
0.148416
0.148418
0.14841
0.148394
0.148369
0.148334
0.148289
0.148235
0.148173
0.148105
0.148033
0.147958
0.147884
0.147813
0.147748
0.147692
0.147649
0.147623
0.147619
0.147642
0.147696
0.147785
0.147914
0.148088
0.148313
0.148597
0.148947
0.149375
0.14989
0.150507
0.15124
0.152108
0.153135
0.15435
0.155801
0.157533
0.159499
0.161684
0.164217
0.1673
0.171191
0.18242
0.210961
0.287333
0.276216
0.367765
0.468272
0.209745
0.192808
0.179947
0.170433
0.162644
0.156756
0.152125
6.95994
1.33289
0.484039
0.269718
0.19607
0.166389
0.153814
0.148701
0.146804
0.146172
0.145991
0.145956
0.145965
0.145986
0.146012
0.146041
0.146072
0.146105
0.146141
0.14618
0.14622
0.146264
0.14631
0.146358
0.14641
0.146464
0.14652
0.14658
0.146642
0.146707
0.146775
0.146846
0.146919
0.146995
0.147073
0.147154
0.147237
0.147322
0.147408
0.147497
0.147586
0.147676
0.147766
0.147856
0.147946
0.148035
0.148121
0.148206
0.148287
0.148364
0.148437
0.148505
0.148566
0.14862
0.148666
0.148703
0.14873
0.148748
0.148757
0.148758
0.148748
0.148727
0.148695
0.148654
0.148604
0.148547
0.148485
0.14842
0.148355
0.148293
0.148236
0.14819
0.148156
0.14814
0.148147
0.148181
0.148249
0.148355
0.148505
0.148705
0.148961
0.149279
0.149669
0.150144
0.150717
0.151404
0.152223
0.153197
0.154355
0.155735
0.157395
0.15932
0.161488
0.163942
0.166838
0.170365
0.175037
0.187222
0.215137
0.282231
0.280931
0.362174
0.467432
0.210497
0.192683
0.181038
0.171446
0.16366
0.157767
0.153119
6.95841
1.33238
0.48387
0.269666
0.19615
0.166399
0.153783
0.148692
0.146815
0.146194
0.146018
0.145985
0.145994
0.146016
0.146043
0.146072
0.146104
0.146138
0.146174
0.146213
0.146255
0.146299
0.146346
0.146396
0.146449
0.146505
0.146564
0.146625
0.14669
0.146758
0.146829
0.146903
0.14698
0.14706
0.147143
0.147229
0.147318
0.147409
0.147503
0.147599
0.147697
0.147796
0.147897
0.147998
0.1481
0.148201
0.148302
0.148401
0.148498
0.148592
0.148682
0.148768
0.148848
0.148922
0.148988
0.149046
0.149095
0.149134
0.149166
0.149187
0.149198
0.149197
0.149185
0.149163
0.149131
0.149091
0.149046
0.148996
0.148946
0.148898
0.148856
0.148824
0.148805
0.148804
0.148826
0.148877
0.148963
0.14909
0.149265
0.149494
0.149784
0.150143
0.15058
0.151107
0.151741
0.152502
0.153414
0.154504
0.155808
0.157373
0.159211
0.161302
0.163703
0.166467
0.169782
0.173845
0.179423
0.192718
0.220361
0.281339
0.296393
0.367277
0.46597
0.213293
0.194604
0.1835
0.17364
0.165723
0.159523
0.154527
6.95678
1.33186
0.483704
0.269633
0.196239
0.166398
0.153743
0.148682
0.146827
0.146218
0.146047
0.146015
0.146025
0.146048
0.146075
0.146104
0.146137
0.146171
0.146209
0.146249
0.146291
0.146337
0.146385
0.146437
0.146491
0.146549
0.146609
0.146674
0.146741
0.146812
0.146886
0.146964
0.147045
0.14713
0.147219
0.14731
0.147406
0.147504
0.147606
0.14771
0.147818
0.147928
0.14804
0.148154
0.148269
0.148385
0.148502
0.148618
0.148734
0.148847
0.148959
0.149066
0.14917
0.149268
0.149359
0.149443
0.149519
0.149586
0.149646
0.149695
0.149734
0.149761
0.149776
0.149781
0.149776
0.149762
0.149741
0.149716
0.149689
0.149664
0.149644
0.149634
0.149637
0.149658
0.149702
0.149775
0.149884
0.150036
0.15024
0.150502
0.150831
0.151234
0.151725
0.152313
0.153014
0.153853
0.154861
0.156076
0.157539
0.159258
0.161221
0.163498
0.166165
0.169283
0.173078
0.177785
0.184402
0.199052
0.227286
0.288816
0.328295
0.381929
0.475484
0.216845
0.198689
0.186761
0.176598
0.168551
0.161837
0.156128
6.95503
1.33135
0.483545
0.269671
0.1963
0.166367
0.153698
0.14867
0.14684
0.146243
0.146076
0.146047
0.146058
0.146081
0.146108
0.146138
0.146171
0.146207
0.146245
0.146286
0.14633
0.146376
0.146426
0.146479
0.146535
0.146595
0.146658
0.146724
0.146795
0.146869
0.146947
0.147029
0.147115
0.147205
0.147299
0.147397
0.1475
0.147606
0.147716
0.147831
0.147949
0.148071
0.148196
0.148324
0.148455
0.148588
0.148723
0.14886
0.148997
0.149134
0.14927
0.149404
0.149535
0.149663
0.149786
0.149902
0.150012
0.150114
0.150211
0.150297
0.150373
0.150438
0.150492
0.150534
0.150566
0.15059
0.150606
0.150617
0.150625
0.150634
0.150648
0.15067
0.150705
0.150757
0.150832
0.150936
0.151075
0.151259
0.151496
0.151795
0.152165
0.152615
0.153159
0.153816
0.154595
0.155518
0.156627
0.157968
0.159547
0.16135
0.163449
0.165931
0.168895
0.172412
0.176759
0.182226
0.190024
0.206362
0.236537
0.309056
0.35957
0.405128
0.486708
0.22128
0.204736
0.190263
0.180307
0.171719
0.164523
0.157703
6.95319
1.33084
0.483393
0.269768
0.196336
0.166311
0.153649
0.148659
0.146854
0.146269
0.146107
0.146079
0.146091
0.146115
0.146143
0.146174
0.146207
0.146243
0.146283
0.146324
0.146369
0.146417
0.146469
0.146523
0.146581
0.146643
0.146709
0.146778
0.146852
0.146929
0.147011
0.147098
0.147189
0.147284
0.147385
0.14749
0.1476
0.147715
0.147836
0.147961
0.148091
0.148226
0.148366
0.14851
0.148659
0.148811
0.148968
0.149127
0.14929
0.149454
0.14962
0.149786
0.149951
0.150115
0.150276
0.150433
0.150585
0.150734
0.150877
0.151012
0.151138
0.151254
0.151359
0.151454
0.151539
0.151616
0.151685
0.151748
0.151807
0.151867
0.151929
0.151999
0.152079
0.152175
0.152293
0.152437
0.152617
0.152841
0.153117
0.153457
0.153871
0.154369
0.154963
0.155684
0.156549
0.157566
0.158775
0.160175
0.161793
0.163681
0.165922
0.168621
0.171913
0.175876
0.180853
0.187195
0.196334
0.214625
0.247782
0.33663
0.384764
0.439945
0.496051
0.227715
0.211855
0.194103
0.184807
0.174996
0.167104
0.15898
6.95124
1.33034
0.48325
0.269903
0.196354
0.166237
0.153598
0.148648
0.146869
0.146296
0.146139
0.146113
0.146126
0.14615
0.146178
0.14621
0.146244
0.146282
0.146322
0.146365
0.146411
0.14646
0.146513
0.14657
0.14663
0.146694
0.146762
0.146834
0.146911
0.146993
0.147079
0.14717
0.147267
0.147369
0.147476
0.147589
0.147708
0.147832
0.147963
0.148101
0.148244
0.148394
0.14855
0.148713
0.148882
0.149057
0.149238
0.149424
0.149616
0.149813
0.150013
0.150217
0.150424
0.150631
0.15084
0.151047
0.151253
0.15146
0.151663
0.151862
0.152053
0.152237
0.152413
0.15258
0.152739
0.152891
0.153035
0.153172
0.153306
0.153437
0.153571
0.153708
0.153853
0.154011
0.154187
0.154387
0.154619
0.154891
0.155214
0.155599
0.156059
0.156603
0.157246
0.158016
0.158952
0.16004
0.161261
0.162668
0.16432
0.166285
0.168666
0.17159
0.175236
0.179692
0.185383
0.192724
0.203387
0.223822
0.260836
0.37117
0.412072
0.486418
0.503851
0.235815
0.219621
0.19864
0.190019
0.178379
0.169641
0.160107
6.94918
1.32985
0.483116
0.270065
0.196361
0.16615
0.153545
0.148638
0.146885
0.146324
0.146172
0.146148
0.146161
0.146186
0.146215
0.146248
0.146283
0.146321
0.146362
0.146406
0.146454
0.146505
0.146559
0.146618
0.14668
0.146747
0.146818
0.146893
0.146974
0.147059
0.14715
0.147247
0.147349
0.147458
0.147572
0.147694
0.147822
0.147957
0.1481
0.148251
0.148409
0.148576
0.148751
0.148934
0.149126
0.149326
0.149535
0.149753
0.149979
0.150213
0.150455
0.150704
0.15096
0.151222
0.151488
0.151758
0.152032
0.152312
0.152593
0.152873
0.153151
0.153426
0.153696
0.153962
0.154223
0.154479
0.154729
0.154972
0.155211
0.155446
0.155681
0.155915
0.156153
0.156398
0.156654
0.156928
0.157226
0.157558
0.157934
0.158366
0.158868
0.159453
0.160136
0.160913
0.161812
0.162868
0.164091
0.165498
0.167177
0.169204
0.171715
0.174861
0.178878
0.183869
0.190364
0.19884
0.211259
0.234263
0.277087
0.413769
0.444394
0.545928
0.512354
0.24578
0.227935
0.204144
0.195519
0.181922
0.17224
0.1612
6.94703
1.32936
0.482991
0.270244
0.196358
0.166055
0.153492
0.148629
0.146903
0.146353
0.146206
0.146184
0.146198
0.146223
0.146253
0.146286
0.146322
0.146361
0.146404
0.146449
0.146498
0.146551
0.146607
0.146667
0.146732
0.146802
0.146876
0.146955
0.147039
0.147129
0.147225
0.147327
0.147436
0.147551
0.147674
0.147805
0.147944
0.148091
0.148246
0.148412
0.148586
0.148771
0.148967
0.149173
0.149391
0.149621
0.149862
0.150115
0.150381
0.15066
0.150951
0.151254
0.151569
0.151896
0.152233
0.152581
0.15294
0.153312
0.153692
0.154079
0.154471
0.154866
0.155264
0.155663
0.156063
0.156464
0.156861
0.157255
0.157643
0.158027
0.158405
0.158778
0.159147
0.159514
0.15988
0.160251
0.160633
0.161035
0.161466
0.16193
0.162436
0.162996
0.163622
0.164335
0.165156
0.166137
0.167323
0.168727
0.170413
0.172485
0.175104
0.178455
0.182849
0.188413
0.195801
0.205559
0.220002
0.246202
0.297439
0.464706
0.484698
0.619492
0.523657
0.257838
0.23673
0.210782
0.201229
0.185621
0.174893
0.162286
6.94478
1.32888
0.482874
0.270432
0.196349
0.165956
0.153439
0.148622
0.146921
0.146383
0.14624
0.14622
0.146235
0.146261
0.146292
0.146326
0.146363
0.146403
0.146446
0.146493
0.146544
0.146598
0.146656
0.146719
0.146786
0.146858
0.146936
0.147019
0.147107
0.147202
0.147303
0.147411
0.147527
0.14765
0.147782
0.147922
0.148072
0.148232
0.148402
0.148583
0.148776
0.148982
0.1492
0.149433
0.14968
0.149942
0.15022
0.150515
0.150827
0.151157
0.151506
0.151873
0.15226
0.152665
0.15309
0.153534
0.154
0.154488
0.154995
0.155519
0.156059
0.156615
0.157183
0.157763
0.158354
0.158955
0.159558
0.160161
0.160761
0.161353
0.161933
0.1625
0.163049
0.163572
0.164068
0.164539
0.164988
0.165423
0.165853
0.166287
0.16674
0.16723
0.167771
0.168388
0.169113
0.169972
0.171058
0.172426
0.174085
0.176177
0.178873
0.182395
0.18716
0.19332
0.201688
0.212895
0.229683
0.259908
0.322642
0.525473
0.535373
0.708921
0.539942
0.272308
0.245826
0.218642
0.207119
0.189622
0.177666
0.163421
6.94243
1.3284
0.482764
0.270624
0.196337
0.165854
0.153388
0.148617
0.146941
0.146414
0.146276
0.146257
0.146273
0.1463
0.146331
0.146366
0.146404
0.146445
0.14649
0.146538
0.14659
0.146646
0.146707
0.146772
0.146842
0.146917
0.146998
0.147085
0.147178
0.147277
0.147384
0.147499
0.147622
0.147753
0.147894
0.148046
0.148207
0.148381
0.148567
0.148766
0.148979
0.149207
0.149451
0.149713
0.149993
0.150292
0.150612
0.150955
0.15132
0.151711
0.152127
0.15257
0.153042
0.153543
0.154074
0.154636
0.155236
0.155871
0.156539
0.157241
0.157975
0.158742
0.159538
0.160362
0.161211
0.162082
0.162965
0.163845
0.164709
0.165549
0.16636
0.167133
0.167863
0.168544
0.169171
0.169744
0.170263
0.170733
0.171163
0.171563
0.17195
0.172343
0.172765
0.173245
0.173818
0.174533
0.175438
0.176666
0.17829
0.180329
0.183071
0.186711
0.191821
0.198591
0.208014
0.220801
0.240208
0.27534
0.352929
0.597133
0.599212
0.816979
0.561448
0.289665
0.255674
0.22786
0.213113
0.19387
0.180451
0.164575
6.93998
1.32793
0.482663
0.270815
0.196321
0.165752
0.153339
0.148613
0.146962
0.146446
0.146312
0.146295
0.146312
0.146339
0.146372
0.146407
0.146446
0.146488
0.146534
0.146584
0.146638
0.146696
0.146759
0.146826
0.146899
0.146977
0.147062
0.147152
0.14725
0.147355
0.147468
0.14759
0.14772
0.147861
0.148012
0.148175
0.14835
0.148538
0.148741
0.148959
0.149194
0.149447
0.14972
0.150014
0.150331
0.150672
0.15104
0.151437
0.151864
0.152324
0.15282
0.153354
0.153927
0.154543
0.155203
0.155912
0.156677
0.157497
0.158372
0.159302
0.160289
0.16133
0.162423
0.163547
0.164691
0.16585
0.167017
0.16818
0.169331
0.170458
0.17155
0.172592
0.173572
0.174478
0.175299
0.176026
0.176657
0.177191
0.177635
0.178001
0.178306
0.178572
0.178832
0.17912
0.179478
0.179969
0.180647
0.181628
0.18308
0.185043
0.187752
0.191459
0.196853
0.204178
0.214672
0.229153
0.251468
0.292429
0.388598
0.681378
0.678651
0.946943
0.589726
0.310031
0.266075
0.237876
0.21933
0.198676
0.183412
0.165821
6.93744
1.32748
0.482617
0.270972
0.196286
0.165651
0.153292
0.148611
0.146983
0.146478
0.146348
0.146333
0.146351
0.146379
0.146412
0.146449
0.146489
0.146532
0.146579
0.146631
0.146686
0.146746
0.146811
0.146881
0.146957
0.147039
0.147127
0.147222
0.147325
0.147435
0.147555
0.147684
0.147823
0.147973
0.148135
0.148309
0.148498
0.148703
0.148924
0.149163
0.149422
0.149703
0.150007
0.150337
0.150695
0.151083
0.151505
0.151964
0.152462
0.153003
0.153592
0.154232
0.154927
0.155681
0.156499
0.157387
0.158358
0.15941
0.160545
0.161762
0.163041
0.164366
0.165736
0.167147
0.168596
0.170083
0.171596
0.17312
0.174643
0.176147
0.177613
0.179019
0.180344
0.181565
0.182662
0.183618
0.184421
0.185065
0.185553
0.185894
0.186106
0.186215
0.186261
0.186288
0.186349
0.186516
0.186873
0.187495
0.188641
0.190443
0.193007
0.196677
0.202235
0.210019
0.221566
0.237829
0.263323
0.310915
0.42966
0.781113
0.774755
1.09527
0.625487
0.335435
0.277733
0.249117
0.22546
0.203613
0.186139
0.166998
6.9348
1.32703
0.482633
0.271089
0.196229
0.165552
0.153248
0.14861
0.147006
0.14651
0.146384
0.146371
0.14639
0.146419
0.146453
0.14649
0.146531
0.146576
0.146625
0.146678
0.146735
0.146797
0.146865
0.146938
0.147016
0.147102
0.147194
0.147293
0.147401
0.147518
0.147644
0.14778
0.147928
0.148088
0.148261
0.148449
0.148653
0.148875
0.149116
0.149378
0.149663
0.149973
0.150312
0.150682
0.151085
0.151527
0.152009
0.152538
0.153118
0.153753
0.15445
0.155214
0.156053
0.156973
0.157982
0.159092
0.160315
0.161643
0.163044
0.164515
0.166058
0.167673
0.169361
0.17112
0.172947
0.17484
0.176789
0.178772
0.180771
0.182762
0.184718
0.186606
0.188392
0.190043
0.191523
0.192802
0.193859
0.194678
0.195256
0.195596
0.195716
0.195643
0.19542
0.195105
0.194767
0.194488
0.194376
0.194563
0.195227