/*--------------------------------*- C++ -*----------------------------------*\
| =========                 |                                                 |
| \\      /  F ield         | OpenFOAM: The Open Source CFD Toolbox           |
|  \\    /   O peration     | Version:  v2106                                 |
|   \\  /    A nd           | Website:  www.openfoam.com                      |
|    \\/     M anipulation  |                                                 |
\*---------------------------------------------------------------------------*/
FoamFile
{
    version     2.0;
    format      ascii;
    arch        "LSB;label=32;scalar=64";
    class       volScalarField;
    location    "0.9";
    object      p;
}
// * * * * * * * * * * * * * * * * * * * * * * * * * * * * * * * * * * * * * //

dimensions      [1 -1 -2 0 0 0 0];

internalField   nonuniform List<scalar> 
29678
(
14642
14494.8
14347.7
14200.6
14053.4
13906.3
13759.1
13612
13464.8
13317.7
13170.5
13023.4
12876.2
12729.1
12581.9
12434.8
12287.7
12140.5
11993.4
11846.2
11699.1
11551.9
11404.8
11257.6
11110.5
10963.4
10816.2
10669.1
10521.9
10374.8
10227.6
10080.5
9933.36
9786.22
9639.07
9491.93
9344.78
9197.63
9050.49
8903.34
8756.19
8609.04
8461.89
8314.74
8167.58
8020.43
7873.27
7726.11
7578.95
7431.79
7284.63
7137.46
6990.3
6843.13
6695.96
6548.79
6401.62
6254.45
6107.27
5960.09
5812.91
5665.73
5518.55
5371.37
5224.19
5077.01
4929.83
4782.65
4635.46
4488.28
4341.1
4193.92
4046.75
3899.57
3752.4
3605.22
3458.05
3310.89
3163.72
3016.56
2869.4
2722.25
2575.1
2427.96
2280.82
2133.69
1986.57
1839.45
1692.34
1545.23
1398.14
1251.05
1103.98
956.91
809.849
662.798
515.744
368.705
221.632
74.563
0.368104
-0.284543
-0.51334
-0.671632
-0.868102
-1.04043
-1.22423
-1.40191
-1.58216
-1.76176
14643.1
14496
14348.8
14201.7
14054.5
13907.4
13760.3
13613.1
13466
13318.8
13171.7
13024.6
12877.4
12730.3
12583.2
12436
12288.9
12141.8
11994.6
11847.5
11700.4
11553.2
11406.1
11259
11111.9
10964.7
10817.6
10670.5
10523.3
10376.2
10229.1
10082
9934.82
9787.69
9640.56
9493.42
9346.28
9199.15
9052
8904.86
8757.71
8610.56
8463.41
8316.25
8169.09
8021.93
7874.76
7727.59
7580.41
7433.23
7286.04
7138.85
6991.65
6844.45
6697.25
6550.04
6402.82
6255.6
6108.38
5961.15
5813.92
5666.68
5519.44
5372.19
5224.95
5077.7
4930.46
4783.21
4635.96
4488.72
4341.48
4194.24
4047
3899.77
3752.54
3605.32
3458.11
3310.9
3163.71
3016.52
2869.34
2722.18
2575.04
2427.91
2280.8
2133.7
1986.62
1839.56
1692.53
1545.52
1398.53
1251.58
1104.65
957.751
810.882
664.047
517.218
370.446
223.592
76.6421
1.40288
-0.288228
-0.511953
-0.669795
-0.864318
-1.0382
-1.22138
-1.39985
-1.58009
-1.75994
14644.3
14497.1
14350
14202.8
14055.7
13908.5
13761.4
13614.3
13467.1
13320
13172.9
13025.7
12878.6
12731.5
12584.4
12437.2
12290.1
12143
11995.9
11848.8
11701.7
11554.5
11407.4
11260.3
11113.2
10966.1
10819
10671.9
10524.8
10377.6
10230.5
10083.4
9936.29
9789.17
9642.04
9494.92
9347.79
9200.66
9053.52
8906.38
8759.24
8612.09
8464.94
8317.78
8170.61
8023.43
7876.25
7729.07
7581.87
7434.67
7287.46
7140.24
6993.01
6845.78
6698.53
6551.28
6404.02
6256.76
6109.49
5962.21
5814.92
5667.62
5520.32
5373.01
5225.71
5078.39
4931.08
4783.77
4636.46
4489.15
4341.84
4194.54
4047.25
3899.96
3752.68
3605.41
3458.15
3310.91
3163.68
3016.47
2869.28
2722.12
2574.97
2427.85
2280.76
2133.69
1986.66
1839.66
1692.7
1545.77
1398.9
1252.07
1105.28
958.555
811.877
665.264
518.663
372.207
225.564
79.1648
2.6937
-0.288099
-0.502115
-0.667817
-0.860253
-1.03636
-1.21924
-1.39875
-1.57928
-1.75947
14645.4
14498.3
14351.1
14204
14056.8
13909.7
13762.6
13615.4
13468.3
13321.2
13174
13026.9
12879.8
12732.7
12585.6
12438.5
12291.4
12144.3
11997.2
11850.1
11703
11555.9
11408.8
11261.7
11114.6
10967.5
10820.4
10673.3
10526.2
10379.1
10232
10084.9
9937.75
9790.65
9643.53
9496.42
9349.3
9202.18
9055.05
8907.91
8760.77
8613.62
8466.47
8319.3
8172.13
8024.95
7877.75
7730.55
7583.34
7436.11
7288.88
7141.63
6994.37
6847.11
6699.83
6552.53
6405.23
6257.92
6110.59
5963.26
5815.92
5668.57
5521.2
5373.84
5226.46
5079.09
4931.71
4784.33
4636.95
4489.58
4342.2
4194.84
4047.49
3900.14
3752.81
3605.49
3458.19
3310.9
3163.64
3016.41
2869.2
2722.02
2574.88
2427.76
2280.69
2133.65
1986.65
1839.71
1692.82
1545.98
1399.21
1252.5
1105.86
959.296
812.809
666.418
520.051
373.929
227.497
81.7606
4.03749
-0.294582
-0.50114
-0.668793
-0.858769
-1.03565
-1.21803
-1.39773
-1.57812
-1.75818
14646.5
14499.4
14352.2
14205.1
14058
13910.8
13763.7
13616.6
13469.5
13322.3
13175.2
13028.1
12881
12733.9
12586.8
12439.7
12292.6
12145.5
11998.4
11851.3
11704.2
11557.2
11410.1
11263
11115.9
10968.8
10821.7
10674.7
10527.6
10380.5
10233.4
10086.3
9939.22
9792.13
9645.03
9497.92
9350.81
9203.7
9056.58
8909.45
8762.31
8615.16
8468
8320.84
8173.66
8026.46
7879.26
7732.04
7584.81
7437.57
7290.31
7143.04
6995.75
6848.45
6701.13
6553.8
6406.45
6259.09
6111.71
5964.33
5816.93
5669.52
5522.09
5374.66
5227.22
5079.78
4932.33
4784.89
4637.44
4490
4342.56
4195.13
4047.71
3900.31
3752.92
3605.55
3458.2
3310.87
3163.58
3016.31
2869.09
2721.9
2574.74
2427.63
2280.57
2133.56
1986.6
1839.7
1692.88
1546.12
1399.44
1252.85
1106.35
959.949
813.65
667.478
521.349
375.562
229.364
84.3029
5.37612
-0.300675
-0.500672
-0.670623
-0.858269
-1.03569
-1.21749
-1.39717
-1.57737
-1.75726
14647.7
14500.5
14353.4
14206.2
14059.1
13912
13764.8
13617.7
13470.6
13323.5
13176.4
13029.3
12882.2
12735.1
12588
12440.9
12293.8
12146.8
11999.7
11852.6
11705.5
11558.5
11411.4
11264.3
11117.3
10970.2
10823.1
10676.1
10529
10381.9
10234.8
10087.8
9940.69
9793.61
9646.52
9499.43
9352.33
9205.22
9058.11
8910.99
8763.85
8616.71
8469.55
8322.38
8175.19
8028
7880.78
7733.55
7586.3
7439.04
7291.76
7144.46
6997.14
6849.8
6702.45
6555.07
6407.68
6260.27
6112.84
5965.4
5817.95
5670.48
5522.99
5375.49
5227.99
5080.48
4932.96
4785.44
4637.93
4490.41
4342.91
4195.41
4047.93
3900.46
3753.01
3605.59
3458.19
3310.82
3163.48
3016.19
2868.94
2721.73
2574.56
2427.45
2280.4
2133.4
1986.48
1839.63
1692.86
1546.18
1399.59
1253.11
1106.74
960.487
814.368
668.405
522.514
377.042
231.098
86.6434
6.62659
-0.306942
-0.501369
-0.6732
-0.858592
-1.0363
-1.21742
-1.39691
-1.57681
-1.75642
14648.8
14501.7
14354.5
14207.4
14060.2
13913.1
13766
13618.9
13471.8
13324.7
13177.6
13030.5
12883.4
12736.3
12589.2
12442.1
12295.1
12148
12000.9
11853.9
11706.8
11559.8
11412.7
11265.7
11118.6
10971.6
10824.5
10677.5
10530.4
10383.3
10236.3
10089.2
9942.16
9795.1
9648.02
9500.94
9353.85
9206.76
9059.65
8912.53
8765.41
8618.26
8471.11
8323.93
8176.75
8029.54
7882.32
7735.07
7587.81
7440.53
7293.22
7145.9
6998.55
6851.18
6703.78
6556.37
6408.93
6261.47
6113.99
5966.5
5818.98
5671.45
5523.9
5376.34
5228.76
5081.18
4933.59
4786
4638.41
4490.82
4343.25
4195.68
4048.13
3900.6
3753.09
3605.6
3458.15
3310.73
3163.35
3016.02
2868.74
2721.51
2574.33
2427.21
2280.16
2133.18
1986.28
1839.46
1692.75
1546.13
1399.62
1253.24
1106.99
960.883
814.932
669.165
523.505
378.319
232.637
88.7037
7.74199
-0.312914
-0.502632
-0.67607
-0.859415
-1.03728
-1.21769
-1.39692
-1.57647
-1.75578
14649.9
14502.8
14355.6
14208.5
14061.4
13914.2
13767.1
13620
13472.9
13325.8
13178.7
13031.6
12884.6
12737.5
12590.4
12443.4
12296.3
12149.2
12002.2
11855.2
11708.1
11561.1
11414
11267
11120
10972.9
10825.9
10678.8
10531.8
10384.8
10237.7
10090.7
9943.64
9796.59
9649.53
9502.46
9355.39
9208.3
9061.2
8914.09
8766.97
8619.83
8472.68
8325.5
8178.31
8031.1
7883.87
7736.62
7589.34
7442.04
7294.71
7147.36
6999.98
6852.58
6705.14
6557.69
6410.2
6262.7
6115.16
5967.61
5820.03
5672.43
5524.82
5377.19
5229.54
5081.88
4934.22
4786.55
4638.89
4491.23
4343.57
4195.93
4048.31
3900.71
3753.13
3605.59
3458.08
3310.6
3163.18
3015.81
2868.49
2721.23
2574.03
2426.9
2279.84
2132.87
1985.99
1839.2
1692.53
1545.96
1399.53
1253.23
1107.09
961.109
815.311
669.723
524.279
379.345
233.925
90.4326
8.69361
-0.318505
-0.504322
-0.679001
-0.860545
-1.03844
-1.21816
-1.39709
-1.57629
-1.7553
14651
14503.9
14356.7
14209.6
14062.5
13915.3
13768.2
13621.1
13474
13326.9
13179.9
13032.8
12885.7
12738.7
12591.6
12444.6
12297.5
12150.5
12003.4
11856.4
11709.4
11562.4
11415.3
11268.3
11121.3
10974.3
10827.3
10680.2
10533.2
10386.2
10239.2
10092.2
9945.12
9798.09
9651.04
9503.99
9356.92
9209.85
9062.76
8915.66
8768.55
8621.41
8474.26
8327.09
8179.9
8032.68
7885.45
7738.18
7590.89
7443.57
7296.22
7148.85
7001.44
6854
6706.53
6559.03
6411.5
6263.94
6116.36
5968.74
5821.1
5673.44
5525.75
5378.05
5230.33
5082.6
4934.85
4787.11
4639.36
4491.62
4343.89
4196.17
4048.47
3900.79
3753.15
3605.54
3457.96
3310.43
3162.96
3015.53
2868.17
2720.88
2573.65
2426.51
2279.44
2132.47
1985.59
1838.83
1692.18
1545.66
1399.28
1253.06
1107.01
961.139
815.476
670.045
524.798
380.082
234.912
91.7937
9.46089
-0.323677
-0.50632
-0.681831
-0.861842
-1.03965
-1.21873
-1.39736
-1.57622
-1.75495
14652.1
14505
14357.8
14210.7
14063.6
13916.5
13769.4
13622.3
13475.2
13328.1
13181
13034
12886.9
12739.9
12592.8
12445.8
12298.7
12151.7
12004.7
11857.7
11710.7
11563.7
11416.6
11269.6
11122.6
10975.6
10828.6
10681.6
10534.6
10387.6
10240.6
10093.6
9946.61
9799.59
9652.56
9505.52
9358.47
9211.41
9064.34
8917.25
8770.14
8623.02
8475.87
8328.7
8181.51
8034.29
7887.04
7739.77
7592.47
7445.13
7297.76
7150.36
7002.92
6855.45
6707.95
6560.41
6412.83
6265.22
6117.58
5969.9
5822.2
5674.47
5526.71
5378.93
5231.13
5083.32
4935.49
4787.66
4639.83
4492
4344.19
4196.38
4048.6
3900.85
3753.13
3605.44
3457.8
3310.21
3162.67
3015.2
2867.79
2720.46
2573.2
2426.03
2278.94
2131.96
1985.09
1838.33
1691.7
1545.21
1398.88
1252.71
1106.73
960.95
815.398
670.101
525.025
380.491
235.554
92.7539
10.0237
-0.328394
-0.508502
-0.684439
-0.863171
-1.04078
-1.2193
-1.39764
-1.57621
-1.75471
14653.2
14506.1
14358.9
14211.8
14064.7
13917.6
13770.5
13623.4
13476.3
13329.2
13182.2
13035.1
12888.1
12741
12594
12447
12300
12152.9
12005.9
11858.9
11711.9
11564.9
11418
11271
11124
10977
10830
10683
10536.1
10389.1
10242.1
10095.1
9948.1
9801.1
9654.09
9507.07
9360.03
9212.99
9065.93
8918.85
8771.75
8624.63
8477.49
8330.33
8183.14
8035.92
7888.67
7741.39
7594.07
7446.72
7299.34
7151.91
7004.45
6856.94
6709.4
6561.82
6414.19
6266.53
6118.83
5971.1
5823.32
5675.52
5527.69
5379.83
5231.95
5084.05
4936.14
4788.22
4640.3
4492.38
4344.48
4196.57
4048.71
3900.88
3753.07
3605.31
3457.59
3309.93
3162.33
3014.8
2867.34
2719.96
2572.66
2425.45
2278.34
2131.34
1984.45
1837.69
1691.07
1544.6
1398.29
1252.16
1106.23
960.518
815.053
669.861
524.927
380.538
235.807
93.2766
10.3595
-0.33261
-0.510731
-0.686727
-0.8644
-1.04172
-1.21976
-1.39784
-1.5762
-1.75455
14654.3
14507.2
14360
14212.9
14065.8
13918.7
13771.6
13624.5
13477.4
13330.4
13183.3
13036.3
12889.2
12742.2
12595.2
12448.2
12301.2
12154.2
12007.2
11860.2
11713.2
11566.2
11419.3
11272.3
11125.3
10978.4
10831.4
10684.4
10537.5
10390.5
10243.5
10096.6
9949.6
9802.61
9655.62
9508.62
9361.6
9214.57
9067.53
8920.46
8773.38
8626.27
8479.14
8331.99
8184.8
8037.58
7890.33
7743.04
7595.71
7448.35
7300.94
7153.5
7006.01
6858.47
6710.89
6563.27
6415.59
6267.88
6120.12
5972.32
5824.48
5676.6
5528.69
5380.75
5232.79
5084.8
4936.79
4788.78
4640.76
4492.75
4344.75
4196.76
4048.79
3900.86
3752.97
3605.12
3457.32
3309.59
3161.92
3014.32
2866.8
2719.37
2572.02
2424.77
2277.63
2130.6
1983.69
1836.91
1690.28
1543.81
1397.5
1251.39
1105.49
959.825
814.417
669.298
524.472
380.186
235.628
93.3203
10.4418
-0.336254
-0.512848
-0.688586
-0.865375
-1.04234
-1.21999
-1.39788
-1.57613
-1.75443
14655.4
14508.3
14361.1
14214
14066.9
13919.8
13772.7
13625.6
13478.5
13331.5
13184.4
13037.4
12890.4
12743.4
12596.3
12449.3
12302.4
12155.4
12008.4
11861.4
11714.5
11567.5
11420.6
11273.6
11126.7
10979.7
10832.8
10685.8
10538.9
10392
10245
10098.1
9951.1
9804.14
9657.17
9510.18
9363.19
9216.18
9069.15
8922.1
8775.03
8627.94
8480.82
8333.67
8186.49
8039.27
7892.02
7744.73
7597.39
7450.02
7302.6
7155.13
7007.61
6860.04
6712.43
6564.76
6417.04
6269.27
6121.45
5973.58
5825.67
5677.72
5529.73
5381.7
5233.64
5085.56
4937.46
4789.35
4641.23
4493.11
4345
4196.91
4048.84
3900.81
3752.82
3604.88
3457
3309.18
3161.44
3013.77
2866.18
2718.68
2571.28
2423.99
2276.8
2129.73
1982.79
1835.98
1689.33
1542.83
1396.52
1250.4
1104.51
958.852
813.468
668.388
523.629
379.402
234.973
92.8382
10.2416
-0.339206
-0.514702
-0.689895
-0.865944
-1.04254
-1.21989
-1.39765
-1.57593
-1.75432
14656.5
14509.3
14362.2
14215.1
14067.9
13920.8
13773.8
13626.7
13479.6
13332.6
13185.5
13038.5
12891.5
12744.5
12597.5
12450.5
12303.5
12156.6
12009.6
11862.7
11715.7
11568.8
11421.8
11274.9
11128
10981.1
10834.2
10687.2
10540.3
10393.4
10246.5
10099.5
9952.61
9805.67
9658.72
9511.76
9364.78
9217.79
9070.78
8923.76
8776.7
8629.62
8482.52
8335.38
8188.21
8041
7893.74
7746.45
7599.11
7451.73
7304.29
7156.8
7009.26
6861.67
6714.01
6566.3
6418.53
6270.71
6122.83
5974.89
5826.91
5678.87
5530.79
5382.67
5234.52
5086.34
4938.13
4789.91
4641.68
4493.46
4345.24
4197.04
4048.86
3900.72
3752.63
3604.59
3456.61
3308.71
3160.88
3013.13
2865.47
2717.91
2570.44
2423.09
2275.84
2128.73
1981.74
1834.89
1688.2
1541.67
1395.32
1249.18
1103.26
957.585
812.191
667.108
522.37
378.151
233.8
91.7796
9.72832
-0.341284
-0.51612
-0.690507
-0.865843
-1.0421
-1.21932
-1.39717
-1.57555
-1.75417
14657.5
14510.4
14363.2
14216.1
14069
13921.9
13774.8
13627.8
13480.7
13333.7
13186.6
13039.6
12892.6
12745.6
12598.7
12451.7
12304.7
12157.8
12010.8
11863.9
11717
11570
11423.1
11276.2
11129.3
10982.4
10835.5
10688.6
10541.7
10394.8
10247.9
10101
9954.13
9807.21
9660.28
9513.35
9366.39
9219.43
9072.44
8925.43
8778.4
8631.34
8484.25
8337.12
8189.96
8042.76
7895.51
7748.22
7600.88
7453.49
7306.04
7158.53
7010.97
6863.34
6715.65
6567.9
6420.08
6272.2
6124.26
5976.25
5828.19
5680.07
5531.9
5383.68
5235.42
5087.13
4938.82
4790.48
4642.14
4493.79
4345.45
4197.13
4048.84
3900.59
3752.39
3604.24
3456.16
3308.16
3160.24
3012.4
2864.66
2717.02
2569.49
2422.07
2274.76
2127.58
1980.54
1833.64
1686.89
1540.31
1393.91
1247.71
1101.74
956.015
810.57
665.441
520.672
376.404
232.065
90.0906
8.86996
-0.342171
-0.517006
-0.690236
-0.864841
-1.04084
-1.21809
-1.39616
-1.5749
-1.75395
14658.6
14511.4
14364.3
14217.2
14070
13923
13775.9
13628.8
13481.8
13334.8
13187.7
13040.7
12893.7
12746.8
12599.8
12452.8
12305.9
12159
12012
11865.1
11718.2
11571.3
11424.4
11277.5
11130.6
10983.8
10836.9
10690
10543.2
10396.3
10249.4
10102.5
9955.65
9808.76
9661.86
9514.95
9368.02
9221.08
9074.12
8927.13
8780.12
8633.08
8486.01
8338.9
8191.75
8044.56
7897.32
7750.04
7602.7
7455.3
7307.84
7160.32
7012.74
6865.08
6717.36
6569.56
6421.7
6273.76
6125.75
5977.67
5829.52
5681.31
5533.05
5384.73
5236.36
5087.95
4939.52
4791.06
4642.59
4494.11
4345.65
4197.2
4048.78
3900.41
3752.09
3603.83
3455.64
3307.53
3159.51
3011.58
2863.76
2716.03
2568.42
2420.92
2273.55
2126.3
1979.19
1832.22
1685.4
1538.75
1392.28
1246
1099.95
954.135
808.599
663.375
518.517
374.134
229.731
87.715
7.63353
-0.341076
-0.517559
-0.688614
-0.862482
-1.03843
-1.21598
-1.39458
-1.57393
-1.75363
14659.6
14512.5
14365.3
14218.2
14071.1
13924
13776.9
13629.9
13482.9
13335.8
13188.8
13041.8
12894.9
12747.9
12600.9
12454
12307.1
12160.1
12013.2
11866.3
11719.4
11572.6
11425.7
11278.8
11132
10985.1
10838.3
10691.4
10544.6
10397.7
10250.9
10104
9957.17
9810.31
9663.44
9516.56
9369.66
9222.75
9075.81
8928.85
8781.87
8634.85
8487.8
8340.71
8193.58
8046.41
7899.18
7751.91
7604.57
7457.17
7309.71
7162.17
7014.57
6866.89
6719.13
6571.29
6423.38
6275.38
6127.3
5979.15
5830.92
5682.62
5534.25
5385.82
5237.33
5088.8
4940.23
4791.64
4643.03
4494.42
4345.82
4197.24
4048.68
3900.18
3751.73
3603.34
3455.04
3306.82
3158.69
3010.66
2862.74
2714.93
2567.23
2419.65
2272.2
2124.87
1977.68
1830.63
1683.74
1537
1390.43
1244.05
1097.88
951.945
806.275
660.904
515.894
371.325
226.77
84.5961
5.97966
-0.335886
-0.518675
-0.684643
-0.858177
-1.03451
-1.21282
-1.39231
-1.57258
-1.7532
14660.6
14513.5
14366.3
14219.2
14072.1
13925
13778
13630.9
13483.9
13336.9
13189.9
13042.9
12895.9
12749
12602
12455.1
12308.2
12161.3
12014.4
11867.5
11720.7
11573.8
11426.9
11280.1
11133.3
10986.4
10839.6
10692.8
10546
10399.2
10252.4
10105.5
9958.71
9811.87
9665.03
9518.18
9371.32
9224.43
9077.53
8930.6
8783.64
8636.66
8489.63
8342.57
8195.46
8048.3
7901.09
7753.83
7606.5
7459.1
7311.64
7164.09
7016.47
6868.77
6720.98
6573.11
6425.14
6277.08
6128.94
5980.7
5832.38
5683.98
5535.51
5386.96
5238.35
5089.68
4940.97
4792.24
4643.48
4494.72
4345.97
4197.24
4048.54
3899.89
3751.3
3602.78
3454.35
3306.01
3157.77
3009.63
2861.61
2713.7
2565.92
2418.25
2270.71
2123.3
1976.03
1828.89
1681.89
1535.05
1388.37
1241.86
1095.55
949.453
803.603
658.033
512.805
367.974
223.18
80.705
3.83665
-0.321534
-0.521998
-0.675776
-0.851085
-1.02862
-1.20841
-1.38931
-1.57085
-1.75264
14661.6
14514.5
14367.3
14220.2
14073.1
13926
13779
13632
13484.9
13337.9
13190.9
13044
12897
12750.1
12603.1
12456.2
12309.3
12162.5
12015.6
11868.7
11721.9
11575
11428.2
11281.4
11134.6
10987.8
10841
10694.2
10547.4
10400.6
10253.8
10107
9960.24
9813.44
9666.64
9519.82
9372.99
9226.14
9079.27
8932.37
8785.45
8638.49
8491.5
8344.46
8197.38
8050.25
7903.06
7755.81
7608.49
7461.11
7313.64
7166.09
7018.46
6870.74
6722.92
6575
6426.99
6278.87
6130.66
5982.34
5833.93
5685.42
5536.83
5388.15
5239.41
5090.6
4941.74
4792.85
4643.93
4495.01
4346.09
4197.2
4048.34
3899.54
3750.8
3602.14
3453.57
3305.1
3156.74
3008.49
2860.36
2712.35
2564.47
2416.72
2269.09
2121.58
1974.21
1826.98
1679.87
1532.91
1386.1
1239.45
1092.96
946.674
800.6
654.775
509.26
364.09
218.988
76.2529
1.09793
-0.287628
-0.521727
-0.656774
-0.840456
-1.02049
-1.20281
-1.38567
-1.5688
-1.75199
14662.6
14515.5
14368.3
14221.2
14074.1
13927
13780
13633
13486
13339
13192
13045
12898.1
12751.2
12604.2
12457.3
12310.5
12163.6
12016.7
11869.9
11723.1
11576.3
11429.4
11282.7
11135.9
10989.1
10842.3
10695.6
10548.8
10402.1
10255.3
10108.5
9961.78
9815.02
9668.25
9521.47
9374.67
9227.86
9081.03
8934.17
8787.28
8640.36
8493.4
8346.4
8199.35
8052.25
7905.08
7757.86
7610.56
7463.18
7315.72
7168.17
7020.53
6872.79
6724.95
6577
6428.93
6280.76
6132.47
5984.07
5835.56
5686.95
5538.23
5389.42
5240.53
5091.56
4942.54
4793.47
4644.39
4495.28
4346.19
4197.12
4048.09
3899.11
3750.21
3601.4
3452.68
3304.08
3155.59
3007.22
2858.98
2710.87
2562.89
2415.04
2267.32
2119.72
1972.25
1824.91
1677.69
1530.61
1383.65
1236.83
1090.15
943.631
797.292
651.157
505.282
359.68
214.081
72.6996
0.198197
-0.179474
-0.445352
-0.618149
-0.825328
-1.01028
-1.19651
-1.38174
-1.56661
-1.75129
14663.6
14516.4
14369.3
14222.2
14075.1
13928
13781
13634
13487
13340
13193
13046.1
12899.1
12752.2
12605.3
12458.4
12311.6
12164.7
12017.9
11871.1
11724.3
11577.5
11430.7
11283.9
11137.2
10990.4
10843.7
10696.9
10550.2
10403.5
10256.8
10110
9963.33
9816.6
9669.87
9523.13
9376.37
9229.6
9082.81
8935.99
8789.14
8642.26
8495.35
8348.38
8201.37
8054.3
7907.17
7759.97
7612.69
7465.33
7317.89
7170.34
7022.7
6874.95
6727.08
6579.1
6430.99
6282.76
6134.4
5985.91
5837.3
5688.56
5539.72
5390.76
5241.71
5092.57
4943.37
4794.12
4644.84
4495.55
4346.26
4196.99
4047.77
3898.61
3749.54
3600.56
3451.69
3302.93
3154.31
3005.82
2857.46
2709.25
2561.17
2413.22
2265.41
2117.72
1970.15
1822.7
1675.36
1528.14
1381.03
1234.02
1087.13
940.357
793.715
647.221
500.915
354.786
208.515
69.3588
0.109003
-0.184496
-0.41143
-0.603397
-0.813181
-1.00055
-1.19069
-1.37811
-1.56457
-1.75059
14664.5
14517.4
14370.2
14223.1
14076
13929
13782
13634.9
13487.9
13341
13194
13047.1
12900.2
12753.3
12606.4
12459.5
12312.7
12165.8
12019
11872.2
11725.4
11578.7
11431.9
11285.2
11138.4
10991.7
10845
10698.3
10551.6
10404.9
10258.2
10111.6
9964.87
9818.19
9671.5
9524.8
9378.09
9231.36
9084.61
8937.84
8791.04
8644.2
8497.33
8350.41
8203.44
8056.41
7909.32
7762.15
7614.91
7467.57
7320.14
7172.61
7024.97
6877.21
6729.33
6581.31
6433.16
6284.87
6136.44
5987.86
5839.15
5690.29
5541.3
5392.19
5242.97
5093.65
4944.25
4794.8
4645.3
4495.79
4346.29
4196.81
4047.38
3898.03
3748.76
3599.6
3450.56
3301.65
3152.89
3004.27
2855.8
2707.47
2559.29
2411.25
2263.35
2115.57
1967.9
1820.35
1672.89
1525.53
1378.26
1231.06
1083.94
936.895
789.921
643.026
496.232
349.509
202.536
65.7934
0.0650169
-0.209103
-0.409726
-0.603079
-0.807842
-0.99542
-1.18714
-1.37552
-1.56301
-1.75
14665.4
14518.3
14371.2
14224.1
14077
13929.9
13782.9
13635.9
13488.9
13341.9
13195
13048.1
12901.2
12754.3
12607.4
12460.6
12313.7
12166.9
12020.1
11873.3
11726.6
11579.8
11433.1
11286.4
11139.7
10993
10846.3
10699.7
10553
10406.3
10259.7
10113.1
9966.42
9819.78
9673.13
9526.48
9379.81
9233.13
9086.43
8939.71
8792.96
8646.18
8499.36
8352.49
8205.57
8058.58
7911.54
7764.41
7617.2
7469.9
7322.5
7174.99
7027.36
6879.6
6731.7
6583.66
6435.47
6287.12
6138.62
5989.95
5841.13
5692.14
5543.01
5393.73
5244.32
5094.79
4945.18
4795.5
4645.77
4496.03
4346.28
4196.57
4046.91
3897.34
3747.86
3598.51
3449.29
3300.22
3151.31
3002.56
2853.97
2705.54
2557.27
2409.14
2261.14
2113.28
1965.52
1817.86
1670.29
1522.8
1375.37
1227.98
1080.63
933.294
785.972
638.648
491.323
343.951
196.237
62.0054
0.0134133
-0.230146
-0.411488
-0.606635
-0.80603
-0.993542
-1.18553
-1.374
-1.562
-1.74954
14666.4
14519.2
14372.1
14225
14077.9
13930.9
13783.8
13636.8
13489.9
13342.9
13196
13049
12902.2
12755.3
12608.4
12461.6
12314.8
12168
12021.2
11874.5
11727.7
11581
11434.3
11287.6
11140.9
10994.3
10847.6
10701
10554.4
10407.8
10261.2
10114.6
9967.96
9821.37
9674.77
9528.16
9381.55
9234.92
9088.28
8941.61
8794.92
8648.19
8501.42
8354.61
8207.75
8060.82
7913.82
7766.75
7619.59
7472.33
7324.96
7177.48
7029.86
6882.11
6734.21
6586.15
6437.93
6289.53
6140.96
5992.2
5843.26
5694.14
5544.85
5395.39
5245.78
5096.01
4946.16
4796.23
4646.25
4496.24
4346.24
4196.26
4046.35
3896.54
3746.83
3597.27
3447.86
3298.63
3149.56
3000.68
2851.97
2703.44
2555.07
2406.86
2258.79
2110.85
1963.01
1815.26
1667.59
1519.97
1372.38
1224.81
1077.23
929.613
781.938
634.174
486.289
338.227
189.719
58.0673
-0.019512
-0.242157
-0.41745
-0.611442
-0.806447
-0.993793
-1.18525
-1.37336
-1.56148
-1.74921
14667.2
14520.1
14373
14225.9
14078.8
13931.8
13784.7
13637.8
13490.8
13343.8
13196.9
13050
12903.1
12756.3
12609.4
12462.6
12315.8
12169
12022.3
11875.6
11728.8
11582.1
11435.5
11288.8
11142.2
10995.5
10848.9
10702.3
10555.8
10409.2
10262.6
10116.1
9969.51
9822.96
9676.41
9529.86
9383.3
9236.72
9090.14
8943.53
8796.9
8650.24
8503.53
8356.78
8209.98
8063.12
7916.19
7769.17
7622.06
7474.86
7327.53
7180.09
7032.5
6884.77
6736.87
6588.81
6440.55
6292.11
6143.47
5994.62
5845.56
5696.3
5546.84
5397.2
5247.37
5097.31
4947.21
4797.01
4646.74
4496.44
4346.14
4195.88
4045.69
3895.6
3745.65
3595.86
3446.25
3296.83
3147.61
2998.6
2849.78
2701.15
2552.7
2404.42
2256.28
2108.27
1960.37
1812.55
1664.79
1517.06
1369.34
1221.6
1073.8
925.914
777.902
629.722
481.257
332.487
183.12
54.0848
-0.0402102
-0.249187
-0.423314
-0.617216
-0.808284
-0.995317
-1.18582
-1.37339
-1.56136
-1.749
14668.1
14521
14373.8
14226.7
14079.7
13932.6
13785.6
13638.6
13491.7
13344.7
13197.8
13050.9
12904.1
12757.2
12610.4
12463.6
12316.8
12170.1
12023.3
11876.6
11729.9
11583.3
11436.6
11290
11143.4
10996.8
10850.2
10703.7
10557.1
10410.6
10264.1
10117.5
9971.04
9824.55
9678.05
9531.55
9385.05
9238.54
9092.02
8945.47
8798.91
8652.31
8505.68
8359.01
8212.28
8065.48
7918.62
7771.68
7624.64
7477.49
7330.23
7182.83
7035.29
6887.58
6739.7
6591.63
6443.36
6294.87
6146.16
5997.22
5848.05
5698.64
5549
5399.16
5249.16
5098.66
4948.33
4797.83
4647.25
4496.62
4345.99
4195.39
4044.89
3894.51
3744.29
3594.25
3444.42
3294.82
3145.44
2996.29
2847.37
2698.66
2550.14
2401.79
2253.61
2105.55
1957.61
1809.74
1661.91
1514.09
1366.26
1218.38
1070.4
922.264
773.929
625.318
476.423
327.018
176.767
50.2045
-0.0531468
-0.253479
-0.428605
-0.622132
-0.810584
-0.997396
-1.18684
-1.37389
-1.56154
-1.74889
14668.9
14521.8
14374.7
14227.6
14080.5
13933.5
13786.5
13639.5
13492.6
13345.6
13198.7
13051.8
12905
12758.2
12611.4
12464.6
12317.8
12171.1
12024.4
11877.7
11731
11584.4
11437.8
11291.2
11144.6
10998
10851.5
10705
10558.5
10412
10265.5
10119
9972.57
9826.13
9679.69
9533.25
9386.81
9240.36
9093.91
8947.44
8800.94
8654.42
8507.87
8361.27
8214.62
8067.91
7921.13
7774.27
7627.31
7480.24
7333.04
7185.71
7038.22
6890.56
6742.71
6594.65
6446.37
6297.85
6149.07
6000.04
5850.75
5701.18
5551.35
5401.27
5250.93
5100.31
4949.59
4798.73
4647.78
4496.77
4345.76
4194.8
4043.94
3893.23
3742.71
3592.41
3442.35
3292.55
3143.01
2993.74
2844.72
2695.93
2547.36
2398.98
2250.77
2102.69
1954.72
1806.83
1658.96
1511.09
1363.19
1215.19
1067.07
918.775
770.216
621.309
471.97
322.018
171.145
46.637
-0.061037
-0.256363
-0.433308
-0.626035
-0.812981
-0.999647
-1.18812
-1.3747
-1.56194
-1.74885
14669.8
14522.6
14375.5
14228.4
14081.3
13934.3
13787.3
13640.4
13493.4
13346.5
13199.6
13052.7
12905.9
12759.1
12612.3
12465.5
12318.8
12172.1
12025.4
11878.7
11732.1
11585.5
11438.9
11292.3
11145.8
10999.2
10852.7
10706.2
10559.8
10413.3
10266.9
10120.5
9974.09
9827.7
9681.32
9534.95
9388.57
9242.19
9095.81
8949.42
8803
8656.56
8510.1
8363.59
8217.03
8070.41
7923.72
7776.95
7630.08
7483.1
7335.99
7188.74
7041.32
6893.71
6745.9
6597.87
6449.59
6301.05
6152.23
6003.12
5853.7
5703.97
5553.94
5403.6
5252.97
5102.04
4950.95
4799.7
4648.33
4496.89
4345.45
4194.07
4042.82
3891.73
3740.88
3590.28
3439.97
3289.97
3140.28
2990.89
2841.79
2692.95
2544.35
2395.96
2247.75
2099.68
1951.72
1803.82
1655.96
1508.08
1360.13
1212.1
1063.91
915.495
766.775
617.635
467.973
317.585
166.244
43.5264
-0.0654648
-0.258598
-0.437349
-0.629683
-0.815156
-1.00192
-1.18954
-1.3757
-1.56247
-1.74888
14670.5
14523.4
14376.3
14229.2
14082.1
13935.1
13788.1
13641.2
13494.2
13347.3
13200.5
13053.6
12906.8
12760
12613.2
12466.4
12319.7
12173
12026.4
11879.7
11733.1
11586.5
11440
11293.4
11146.9
11000.4
10853.9
10707.5
10561.1
10414.7
10268.3
10121.9
9975.6
9829.27
9682.95
9536.64
9390.33
9244.03
9097.72
8951.41
8805.08
8658.73
8512.35
8365.94
8219.48
8072.97
7926.38
7779.72
7632.96
7486.08
7339.08
7191.92
7044.59
6897.06
6749.31
6601.32
6453.07
6304.52
6155.66
6006.47
5856.94
5707.04
5556.79
5406.2
5255.28
5103.91
4952.44
4800.74
4648.9
4496.97
4345.04
4193.18
4041.47
3889.97
3738.74
3587.82
3437.25
3287.05
3137.2
2987.71
2838.55
2689.68
2541.09
2392.72
2244.54
2096.51
1948.59
1800.73
1652.91
1505.06
1357.15
1209.11
1060.91
912.451
763.66
614.397
464.561
313.843
162.309
41.0356
-0.0686191
-0.260878
-0.441034
-0.633161
-0.817554
-1.00434
-1.19115
-1.3769
-1.56312
-1.74897
14671.3
14524.2
14377.1
14230
14082.9
13935.9
13788.9
13642
13495
13348.1
13201.3
13054.4
12907.6
12760.8
12614.1
12467.3
12320.6
12174
12027.3
11880.7
11734.1
11587.5
11441
11294.5
11148
11001.6
10855.1
10708.7
10562.4
10416
10269.7
10123.4
9977.08
9830.81
9684.56
9538.32
9392.08
9245.86
9099.63
8953.41
8807.17
8660.92
8514.64
8368.34
8221.99
8075.59
7929.12
7782.58
7635.94
7489.19
7342.3
7195.26
7048.03
6900.61
6752.95
6605.02
6456.81
6308.28
6159.4
6010.14
5860.49
5710.43
5559.96
5409.06
5257.77
5106.07
4954.11
4801.89
4649.5
4497
4344.5
4192.08
4039.84
3887.87
3736.22
3584.96
3434.11
3283.7
3133.71
2984.14
2834.94
2686.09
2537.53
2389.22
2241.12
2093.17
1945.34
1797.57
1649.83
1502.07
1354.23
1206.25
1058.1
909.678
760.932
611.668
461.876
310.959
159.62
39.3751
-0.0705732
-0.264018
-0.444749
-0.636784
-0.820181
-1.00709
-1.19298
-1.37827
-1.56387
-1.74912
14672
14524.9
14377.8
14230.7
14083.7
13936.7
13789.7
13642.7
13495.8
13348.9
13202.1
13055.2
12908.4
12761.7
12614.9
12468.2
12321.5
12174.9
12028.2
11881.6
11735.1
11588.5
11442
11295.6
11149.1
11002.7
10856.3
10710
10563.6
10417.3
10271
10124.8
9978.55
9832.34
9686.15
9539.98
9393.83
9247.68
9101.54
8955.41
8809.27
8663.12
8516.95
8370.76
8224.54
8078.26
7931.93
7785.52
7639.02
7492.41
7345.66
7198.76
7051.67
6904.37
6756.82
6609
6460.85
6312.36
6163.48
6014.18
5864.42
5714.2
5563.49
5412.28
5260.6
5108.46
4955.96
4803.15
4650.12
4496.97
4343.8
4190.73
4037.88
3885.36
3733.24
3581.6
3430.46
3279.85
3129.74
2980.11
2830.92
2682.12
2533.65
2385.46
2237.48
2089.66
1941.96
1794.34
1646.72
1499.08
1351.37
1203.51
1055.5
907.194
758.626
609.484
460.045
309.074
158.322
38.6844
-0.0733994
-0.268735
-0.449149
-0.640951
-0.823269
-1.01019
-1.19507
-1.37983
-1.56473
-1.74936
14672.7
14525.6
14378.5
14231.4
14084.4
13937.4
13790.4
13643.5
13496.6
13349.7
13202.8
13056
12909.2
12762.5
12615.7
12469
12322.4
12175.7
12029.1
11882.6
11736
11589.5
11443
11296.6
11150.2
11003.8
10857.4
10711.1
10564.8
10418.6
10272.4
10126.2
9979.99
9833.85
9687.73
9541.63
9395.55
9249.49
9103.45
8957.41
8811.37
8665.33
8519.28
8373.22
8227.12
8080.99
7934.8
7788.55
7642.2
7495.75
7349.17
7202.43
7055.5
6908.36
6760.95
6613.26
6465.21
6316.79
6167.94
6018.62
5868.79
5718.4
5567.45
5415.91
5263.8
5111.16
4958.05
4804.55
4650.78
4496.84
4342.88
4189.05
4035.49
3882.34
3729.69
3577.63
3426.2
3275.39
3125.19
2975.55
2826.43
2677.74
2529.42
2381.39
2233.6
2085.97
1938.47
1791.01
1643.58
1496.11
1348.58
1200.89
1053.1
904.983
756.764
607.821
459.006
308.291
158.464
39.04
-0.0793605
-0.275254
-0.454816
-0.645717
-0.826993
-1.01358
-1.19718
-1.38141
-1.56559
-1.74961
14673.4
14526.3
14379.2
14232.1
14085.1
13938.1
13791.1
13644.2
13497.3
13350.4
13203.6
13056.7
12910
12763.2
12616.5
12469.8
12323.2
12176.6
12030
11883.4
11736.9
11590.4
11444
11297.6
11151.2
11004.9
10858.6
10712.3
10566
10419.8
10273.7
10127.5
9981.4
9835.32
9689.27
9543.25
9397.26
9251.29
9105.33
8959.4
8813.47
8667.55
8521.62
8375.69
8229.74
8083.76
7937.73
7791.64
7645.47
7499.21
7352.81
7206.27
7059.53
6912.58
6765.35
6617.82
6469.93
6321.61
6172.83
6023.52
5873.63
5723.11
5571.92
5420.04
5267.46
5114.24
4960.42
4806.12
4651.47
4496.61
4341.7
4186.96
4032.56
3878.67
3725.43
3572.91
3421.17
3270.19
3119.95
2970.37
2821.37
2672.87
2524.78
2377
2229.47
2082.1
1934.83
1787.61
1640.39
1493.14
1345.83
1198.37
1050.89
903.012
755.263
606.672
458.629
308.582
159.912
40.4344
-0.0896859
-0.282967
-0.462029
-0.651124
-0.83139
-1.01722
-1.19962
-1.38334
-1.56671
-1.74999
14674.1
14526.9
14379.8
14232.7
14085.7
13938.7
13791.8
13644.8
13497.9
13351.1
13204.3
13057.5
12910.7
12764
12617.3
12470.6
12324
12177.4
12030.8
11884.3
11737.8
11591.3