/*--------------------------------*- C++ -*----------------------------------*\
| =========                 |                                                 |
| \\      /  F ield         | OpenFOAM: The Open Source CFD Toolbox           |
|  \\    /   O peration     | Version:  v2106                                 |
|   \\  /    A nd           | Website:  www.openfoam.com                      |
|    \\/     M anipulation  |                                                 |
\*---------------------------------------------------------------------------*/
FoamFile
{
    version     2.0;
    format      ascii;
    arch        "LSB;label=32;scalar=64";
    class       volScalarField;
    location    "0.9";
    object      p_rgh;
}
// * * * * * * * * * * * * * * * * * * * * * * * * * * * * * * * * * * * * * //

dimensions      [1 -1 -2 0 0 0 0];

internalField   nonuniform List<scalar> 
29678
(
0.572454
0.573443
0.575288
0.577482
0.579864
0.582369
0.585036
0.587934
0.591124
0.594644
0.598515
0.602739
0.607302
0.612181
0.617341
0.622734
0.62832
0.633819
0.639207
0.644992
0.651306
0.657944
0.664854
0.67208
0.679731
0.687404
0.694755
0.701935
0.709006
0.715951
0.722715
0.72923
0.73542
0.741211
0.746533
0.751313
0.755479
0.75895
0.761639
0.763462
0.76433
0.764156
0.762854
0.76034
0.756535
0.751366
0.744775
0.73671
0.727135
0.716033
0.703424
0.689403
0.674223
0.657833
0.639609
0.619256
0.596745
0.571706
0.545187
0.517896
0.489401
0.459895
0.429545
0.39849
0.366885
0.33491
0.302772
0.270701
0.238943
0.207766
0.17746
0.148317
0.120619
0.0946228
0.0705607
0.0486462
0.0290724
0.0120051
-0.00254241
-0.0152524
-0.0252968
-0.0284166
-0.0241007
-0.015544
-0.00240743
0.0162865
0.0411854
0.0728912
0.111999
0.15907
0.214595
0.278939
0.352217
0.434526
0.524193
0.623376
0.718829
0.829508
0.907484
0.987951
0.94909
-0.0086366
-0.0534961
-0.0278504
-0.0403829
-0.0287778
-0.0286359
-0.0223828
-0.0186907
-0.0143513
1.71219
1.71304
1.71469
1.71709
1.72072
1.7258
1.73234
1.74026
1.74945
1.75984
1.77139
1.78406
1.79778
1.81245
1.82794
1.84407
1.86121
1.87977
1.89943
1.9198
1.94065
1.9619
1.98355
2.00566
2.02839
2.05114
2.07339
2.09532
2.11696
2.1382
2.1589
2.17883
2.1978
2.21558
2.23198
2.24678
2.25977
2.2707
2.27933
2.28539
2.28862
2.28878
2.28561
2.27886
2.26831
2.25374
2.23498
2.21189
2.18435
2.15227
2.11564
2.07453
2.02926
1.97971
1.92503
1.86498
1.79993
1.73
1.65529
1.57532
1.49077
1.40298
1.31244
1.21958
1.12483
1.02873
0.931886
0.834946
0.738617
0.643652
0.550837
0.460978
0.374877
0.293325
0.217115
0.147052
0.0839539
0.0285951
-0.0186484
-0.0577599
-0.0834399
-0.0906777
-0.0824866
-0.0616086
-0.02619
0.0262343
0.0975813
0.189688
0.304393
0.443514
0.608774
0.801744
1.02368
1.27591
1.55659
1.87207
2.19268
2.57074
2.86696
3.06712
3.05343
-0.0123222
-0.0521094
-0.0260133
-0.0365997
-0.0265468
-0.0257837
-0.0203235
-0.0166202
-0.0125351
2.85029
2.85136
2.85351
2.857
2.8627
2.871
2.88187
2.89509
2.91045
2.92784
2.94717
2.96839
2.99137
3.01593
3.04175
3.06947
3.09972
3.13218
3.16619
3.20086
3.23591
3.27145
3.30746
3.34392
3.38075
3.41769
3.45447
3.49099
3.52713
3.56264
3.59724
3.63059
3.66234
3.69215
3.71968
3.74459
3.76649
3.78497
3.79961
3.80999
3.81568
3.81625
3.81128
3.80036
3.78311
3.7592
3.72834
3.69026
3.64474
3.59159
3.5307
3.46203
3.38559
3.30122
3.20865
3.10789
2.99945
2.88418
2.76147
2.63052
2.49138
2.34519
2.19397
2.03875
1.88028
1.71943
1.55722
1.39473
1.23316
1.07373
0.917772
0.766595
0.621533
0.48392
0.355126
0.23658
0.129758
0.0360667
-0.0435349
-0.105337
-0.143304
-0.157763
-0.151435
-0.122051
-0.0669043
0.0169501
0.132442
0.282565
0.470386
0.698982
0.971358
1.29041
1.65888
2.07973
2.55197
3.08861
3.63821
4.33199
4.83866
5.58984
5.63164
-0.0121924
-0.042271
-0.0240359
-0.032534
-0.0247012
-0.0236464
-0.0192218
-0.0158087
-0.012059
3.98613
3.9875
3.99024
3.99485
4.00269
4.01428
4.02953
4.04812
4.06974
4.09422
4.12146
4.15138
4.1838
4.2184
4.25561
4.2965
4.34052
4.38618
4.43314
4.48117
4.53008
4.57978
4.63015
4.68109
4.73245
4.78404
4.83562
4.88697
4.93782
4.98782
5.03654
5.08352
5.12829
5.17039
5.20935
5.24467
5.27579
5.30214
5.32312
5.33814
5.34661
5.34792
5.3415
5.32677
5.30321
5.27036
5.22779
5.1751
5.11194
5.03801
4.95307
4.85699
4.74965
4.6309
4.50063
4.35894
4.20618
4.04289
3.8694
3.68666
3.49399
3.29052
3.07842
2.86023
2.63725
2.41077
2.18221
1.95312
1.72516
1.50007
1.27967
1.06582
0.860371
0.665244
0.482421
0.313972
0.162033
0.0286121
-0.0841773
-0.169322
-0.224214
-0.250653
-0.247763
-0.211941
-0.139716
-0.0273197
0.129209
0.33402
0.591408
0.905718
1.28131
1.72261
2.23419
2.82111
3.48414
4.24323
5.02605
6.05444
6.77172
8.18556
8.32437
-0.0186757
-0.0412966
-0.025012
-0.0310505
-0.0239985
-0.0224409
-0.0182006
-0.0146464
-0.0107762
5.11908
5.12078
5.12412
5.12989
5.13985
5.15473
5.1744
5.19841
5.22638
5.25808
5.2934
5.33219
5.37428
5.41952
5.4691
5.52302
5.57949
5.63781
5.69784
5.7594
5.82226
5.88623
5.95115
6.01684
6.08312
6.14975
6.21649
6.283
6.3489
6.41371
6.47688
6.53785
6.59603
6.65084
6.70167
6.74784
6.78865
6.82333
6.85113
6.8713
6.88306
6.88565
6.87832
6.86035
6.83107
6.78988
6.7362
6.66948
6.58921
6.49493
6.38632
6.26311
6.12508
5.9721
5.80411
5.62124
5.42388
5.21259
4.98799
4.75098
4.50243
4.24143
3.96842
3.68629
3.3976
3.10413
2.80775
2.51047
2.21442
1.92187
1.63513
1.35659
1.0887
0.833982
0.595037
0.374569
0.175341
-6.36595e-05
-0.14777
-0.260397
-0.33644
-0.377766
-0.381197
-0.342248
-0.256585
-0.119565
0.0737907
0.328763
0.650829
1.04559
1.51884
2.07678
2.72612
3.47426
4.32469
5.30255
6.32378
7.68666
8.63919
10.7279
11.0034
-0.0247683
-0.0408285
-0.0268415
-0.0305501
-0.0240294
-0.0218998
-0.0176369
-0.0139027
-0.00985767
6.24836
6.25041
6.2544
6.26133
6.27345
6.29164
6.31578
6.34531
6.37974
6.41882
6.46235
6.51019
6.5621
6.61877
6.68075
6.74681
6.81548
6.88654
6.95981
7.03507
7.11207
7.19057
7.27034
7.35115
7.43275
7.51487
7.59718
7.67927
7.76062
7.84065
7.91871
7.99414
8.06625
8.13432
8.19759
8.25521
8.3063
8.34994
8.38521
8.4112
8.42696
8.43156
8.42408
8.40364
8.36944
8.3207
8.25668
8.17664
8.07989
7.96583
7.83398
7.68397
7.5155
7.3284
7.12263
6.8984
6.65611
6.39637
6.11994
5.82782
5.52137
5.20098
4.86617
4.51894
4.16291
3.80062
3.43443
3.06684
2.70048
2.33809
1.98252
1.63673
1.30379
0.986847
0.689115
0.413883
0.164488
-0.055886
-0.241192
-0.385484
-0.487394
-0.547553
-0.561291
-0.523447
-0.4289
-0.272154
-0.0472591
0.252106
0.632519
1.10084
1.66442
2.33138
3.11072
4.01223
5.04273
6.23022
7.48936
9.16713
10.3732
13.0684
13.5048
-0.0310361
-0.0415256
-0.0294188
-0.0308732
-0.0246454
-0.02183
-0.0173763
-0.0133384
-0.00901832
7.37313
7.37554
7.38019
7.38834
7.40265
7.42423
7.45293
7.48807
7.52912
7.57571
7.62762
7.68461
7.74678
7.81515
7.88918
7.96696
8.04792
8.13186
8.21855
8.30773
8.39913
8.49246
8.58746
8.68381
8.78122
8.87931
8.97769
9.07584
9.17315
9.26894
9.36247
9.45297
9.53965
9.62164
9.69804
9.76782
9.82995
9.88334
9.92691
9.95959
9.98026
9.98781
9.98115
9.95923
9.92109
9.86576
9.79229
9.69975
9.58726
9.45405
9.29948
9.12308
8.92446
8.70342
8.45992
8.19418
7.90662
7.59787
7.26878
6.92046
6.55434
6.17212
5.77381
5.36021
4.93482
4.5014
4.06292
3.6224
3.18294
2.74781
2.32036
1.90416
1.50301
1.12067
0.76091
0.427546
0.124427
-0.14397
-0.371172
-0.551971
-0.684946
-0.768493
-0.797189
-0.765428
-0.667397
-0.496788
-0.246774
0.0898793
0.520778
1.05407
1.69877
2.46499
3.36395
4.40776
5.60682
6.99026
8.47988
10.4435
11.9123
15.1287
15.7361
-0.0370079
-0.0427879
-0.0322892
-0.031696
-0.0256258
-0.0220972
-0.0173862
-0.0130001
-0.00837468
8.49251
8.49527
8.50062
8.51003
8.52661
8.55167
8.58503
8.62594
8.67374
8.728
8.78842
8.8548
8.92785
9.00782
9.09327
9.18281
9.2762
9.37318
9.47351
9.57688
9.683
9.79156
9.90222
10.0146
10.1283
10.243
10.358
10.4728
10.5866
10.6988
10.8085
10.9148
11.0168
11.1135
11.2039
11.2867
11.3608
11.4249
11.4778
11.5182
11.5449
11.5566
11.5519
11.5297
11.4887
11.4279
11.346
11.2419
11.1145
10.9629
10.7862
10.584
10.3556
10.1009
9.81971
9.51233
9.17912
8.82074
8.43811
8.03246
7.60529
7.15846
6.69365
6.21173
5.71489
5.2076
4.69385
4.17728
3.66144
3.15014
2.64724
2.1568
1.68372
1.23227
0.806663
0.411259
0.0505577
-0.270263
-0.544904
-0.767666
-0.936871
-1.04872
-1.09766
-1.07771
-0.982436
-0.804809
-0.53727
-0.171791
0.300227
0.888264
1.60301
2.45648
3.46199
4.63381
5.98603
7.54785
9.2539
11.4701
13.2
16.8576
17.6405
-0.0425989
-0.0444787
-0.0352193
-0.0328264
-0.0267882
-0.0225671
-0.017563
-0.012819
-0.00788922
9.6056
9.60872
9.61481
9.62555
9.6445
9.67313
9.7113
9.75812
9.81283
9.8749
9.94394
10.0203
10.1045
10.1957
10.2922
10.3937
10.4997
10.6099
10.7241
10.842
10.9633
11.0875
11.2143
11.3433
11.4739
11.6056
11.7379
11.87
12.0012
12.1305
12.2572
12.3801
12.4983
12.6107
12.716
12.8128
12.8999
12.9759
13.0394
13.0889
13.1229
13.14
13.1387
13.1175
13.0751
13.0101
12.9209
12.8063
12.6649
12.4958
12.2978
12.0703
11.8127
11.5246
11.2059
10.8568
10.4775
10.0688
9.63165
9.16739
8.6776
8.16419
7.6294
7.0755
6.50468
5.92043
5.32778
4.73161
4.13567
3.54436
2.96193
2.39241
1.84317
1.31841
0.822627
0.360664
-0.0628074
-0.442102
-0.769617
-1.03997
-1.2503
-1.39594
-1.47109
-1.46942
-1.38396
-1.20713
-0.930796
-0.546223
-0.0438315
0.587173
1.35904
2.28551
3.38181
4.6643
6.15074
7.86996
9.77266
12.2067
14.1871
18.2187
19.1769
-0.0477703
-0.0464761
-0.0380501
-0.0341236
-0.0279965
-0.0231396
-0.017833
-0.0127533
-0.00754383
10.7115
10.715
10.7219
10.734
10.7554
10.7878
10.8309
10.8838
10.9456
11.0156
11.0937
11.1806
11.2756
11.3774
11.4853
11.5988
11.7176
11.8414
11.9699
12.1027
12.2395
12.3799
12.5234
12.6695
12.8176
12.9671
13.1173
13.2675
13.4168
13.5642
13.7087
13.8492
13.9847
14.1138
14.2351
14.3472
14.4486
14.5378
14.6132
14.6732
14.7161
14.7403
14.7439
14.7253
14.6829
14.615
14.5199
14.396
14.2419
14.0562
13.8379
13.586
13.2998
12.9788
12.6227
12.2316
11.8058
11.346
10.8532
10.3288
9.77449
9.19245
8.58513
7.95538
7.30659
6.64209
5.96651
5.2857
4.60528
3.92984
3.26398
2.60804
1.97847
1.37598
0.804847
0.269681
-0.223405
-0.666425
-1.05173
-1.37487
-1.63181
-1.81733
-1.92532
-1.94907
-1.88126
-1.71394
-1.43853
-1.04568
-0.524878
0.135855
0.950127
1.93317
3.10194
4.47487
6.07325
7.92555
10.0001
12.6161
14.8287
19.1789
20.3051
-0.0524875
-0.0486581
-0.0406582
-0.0354525
-0.0291232
-0.023706
-0.0181089
-0.0127438
-0.00730534
11.8093
11.8132
11.8209
11.8346
11.8586
11.8948
11.943
12.0021
12.0711
12.1494
12.2373
12.3344
12.4397
12.5522
12.6716
12.7975
12.9294
13.0671
13.2102
13.3584
13.5113
13.6684
13.8291
13.9929
14.1592
14.3271
14.4961
14.6652
14.8334
14.9998
15.1632
15.3225
15.4763
15.6233
15.7619
15.8906
16.0078
16.1118
16.2008
16.273
16.3265
16.3594
16.3697
16.3554
16.3147
16.2456
16.1461
16.0144
15.8489
15.6481
15.4105
15.1352
14.8212
14.4677
14.0745
13.6412
13.1683
12.6564
12.1065
11.5202
10.8992
10.2461
9.56368
8.85522
8.12443
7.37532
6.61301
5.843
5.07196
4.30702
3.55704
2.7979
2.08721
1.40052
0.746279
0.13105
-0.436353
-0.94744
-1.39613
-1.77779
-2.08752
-2.31956
-2.4675
-2.52439
-2.48271
-2.33432
-2.07036
-1.68093
-1.15476
-0.478896
0.361342
1.38245
2.60296
4.04327
5.72797
7.68559
9.90219
12.6626
15.0816
19.7016
20.9796
-0.0567042
-0.0508873
-0.0429457
-0.0366812
-0.030059
-0.0241645
-0.0183104
-0.012735
-0.00714394
12.8982
12.9025
12.9111
12.9264
12.953
12.9932
13.0467
13.1122
13.1888
13.2761
13.3735
13.4803
13.5957
13.7192
13.8504
13.9889
14.1343
14.2863
14.4445
14.6086
14.778
14.9524
15.1309
15.3131
15.4982
15.6854
15.8739
16.0628
16.251
16.4375
16.6209
16.8001
16.9736
17.1398
17.2972
17.4441
17.5787
17.6991
17.8035
17.8898
17.9559
17.9995
18.0184
18.0103
17.9732
17.9047
17.8026
17.665
17.4898
17.2753
17.02
16.7225
16.3815
15.9962
15.5658
15.0903
14.5696
14.0045
13.3959
12.7456
12.0556
11.3285
10.5677
9.77696
8.96043
8.12278
7.26898
6.40499
5.53751
4.67405
3.82155
2.98101
2.1694
1.38791
0.643011
-0.0566262
-0.702805
-1.28832
-1.80713
-2.25389
-2.62309
-2.90868
-3.10406
-3.20221
-3.1956
-3.07609
-2.83466
-2.46106
-1.94348
-1.26832
-0.420101
0.618659
1.86781
3.34962
5.09159
7.123
9.44687
12.3112
14.9027
19.7453
21.1475
-0.0603481
-0.0530044
-0.0448044
-0.0376564
-0.0306822
-0.0243989
-0.0183468
-0.0126641
-0.00702752
13.9772
13.982
13.9915
14.0084
14.0378
14.0821
14.141
14.2134
14.2982
14.3943
14.5008
14.6171
14.7429
14.8776
15.0209
15.1724
15.3316
15.4983
15.6721
15.8526
16.0392
16.2313
16.4283
16.6295
16.8341
17.0414
17.2504
17.4601
17.6694
17.877
18.0818
18.2821
18.4767
18.6637
18.8415
19.0082
19.1621
19.301
19.4228
19.5252
19.6059
19.6623
19.692
19.6924
19.661
19.5952
19.4928
19.3513
19.1684
18.9422
18.6708
18.3523
17.9855
17.5689
17.1018
16.5837
16.0146
15.3951
14.7262
14.0097
13.2479
12.4437
11.6009
10.7234
9.81612
8.88421
7.93346
6.97012
6.00055
5.03329
4.07589
3.13448
2.21929
1.33744
0.49687
-0.293704
-1.02613
-1.69321
-2.28929
-2.8081
-3.24381
-3.59022
-3.84078
-3.98857
-4.02625
-3.94585
-3.73839
-3.39352
-2.89922
-2.24159
-1.40474
-0.370515
0.881968
2.37662
4.14335
6.21291
8.60379
11.5269
14.2484
19.2632
20.7508
-0.0633001
-0.0548581
-0.046114
-0.0382257
-0.0308793
-0.0242946
-0.0181211
-0.0124584
-0.00691327
15.0454
15.0507
15.0612
15.0798
15.112
15.1604
15.2253
15.3052
15.3981
15.5025
15.6179
15.744
15.8804
16.0266
16.1823
16.3471
16.5206
16.7025
16.8924
17.0897
17.294
17.5045
17.7206
17.9416
18.1666
18.3947
18.6251
18.8567
19.0882
19.3183
19.5456
19.7687
19.9858
20.1952
20.3952
20.5838
20.7588
20.9183
21.0597
21.1805
21.2782
21.3498
21.3927
21.4039
21.3807
21.3203
21.22
21.0771
20.8889
20.6532
20.3674
20.0297
19.6381
19.1912
18.6877
18.1269
17.5088
16.8338
16.1029
15.318
14.4815
13.5968
12.6675
11.6984
10.6946
9.66192
8.60692
7.53673
6.45731
5.38071
4.31221
3.26075
2.23634
1.24805
0.304845
-0.584346
-1.41104
-2.16754
-2.84746
-3.44542
-3.95481
-4.36947
-4.68302
-4.88887
-4.9801
-4.94908
-4.78715
-4.4842
-4.02834
-3.40581
-2.60075
-1.59473
-0.366197
1.11009
2.86575
4.9333
7.34515
10.2763
13.0749
18.2046
19.7279
-0.0653773
-0.0562767
-0.0467258
-0.0381246
-0.0304449
-0.0237288
-0.0176418
-0.0120763
-0.0067634
16.1019
16.1077
16.1193
16.1396
16.1747
16.2277
16.2992
16.3866
16.4871
16.5997
16.7242
16.8602
17.0074
17.1654
17.3338
17.5123
17.7005
17.898
18.1045
18.3193
18.5418
18.7713
19.0072
19.2486
19.4948
19.7448
19.9977
20.2522
20.5071
20.761
21.0124
21.2596
21.5009
21.7346
21.9587
22.1711
22.3697
22.5519
22.7153
22.857
22.9742
23.0637
23.1225
23.1474
23.1353
23.0831
22.9878
22.8463
22.6555
22.4126
22.1148
21.7596
21.3449
20.8686
20.3293
19.7261
19.0586
18.327
17.5325
16.6768
15.7626
14.7932
13.7728
12.7064
11.5997
10.4591
9.29201
8.10562
6.91055
5.71528
4.52794
3.35844
2.21745
1.11524
0.0616906
-0.93379
-1.86238
-2.71602
-3.48759
-4.17111
-4.76135
-5.25164
-5.63589
-5.90808
-6.06187
-6.09031
-5.98534
-5.73743
-5.33531
-4.76583
-4.01366
-3.0606
-1.88482
-0.460342
1.2454
3.26629
5.64713
8.52878
11.3401
16.5156
18.0156
-0.0662651
-0.0571624
-0.0464547
-0.037122
-0.0291878
-0.0224924
-0.0166325
-0.0114306
-0.00654167
17.1458
17.152
17.1647
17.1868
17.2248
17.2833
17.3617
17.4564
17.5643
17.6851
17.8187
17.9648
18.1231
18.2931
18.4745
18.6671
18.8704
19.0841
19.3076
19.5403
19.7817
20.0309
20.2872
20.5499
20.8182
21.091
21.3674
21.6461
21.9257
22.2048
22.4816
22.7546
23.022
23.2819
23.5322
23.7707
23.995
24.2026
24.3905
24.5558
24.6953
24.8056
24.8834
24.9251
24.9274
24.8867
24.7997
24.6627
24.4723
24.2251
23.9178
23.5474
23.1114
22.6073
22.0332
21.388
20.6708
19.8819
19.022
18.0931
17.0976
16.0393
14.9224
13.7524
12.5357
11.2795
9.99244
8.68069
7.36049
6.03757
4.72231
3.4258
2.15957
0.934883
-0.237485
-1.34747
-2.38582
-3.34417
-4.21506
-4.99178
-5.66906
-6.24205
-6.70437
-7.05072
-7.27564
-7.37311
-7.33603
-7.15586
-6.82247
-6.32389
-5.64588
-4.77101
-3.67781
-2.34033
-0.726042
1.19975
3.49175
6.25886
9.00609
14.14
15.5499
-0.0651713
-0.057715
-0.0448329
-0.0347636
-0.0267756
-0.0203905
-0.0150458
-0.0104617
-0.00622824
18.1761
18.1828
18.1966
18.2204
18.2618
18.3263
18.4118
18.5133
18.6285
18.7578
18.9007
19.0571
19.2266
19.4089
19.6037
19.8107
20.0296
20.2598
20.5008
20.7521
21.0128
21.2824
21.5599
21.8448
22.136
22.4327
22.7337
23.0378
23.3434
23.649
23.9529
24.2535
24.5488
24.837
25.1157
25.3826
25.6353
25.8708
26.0861
26.278
26.443
26.5773
26.6774
26.7395
26.7598
26.7343
26.6593
26.5304
26.3438
26.0955
25.7817
25.3989
24.9439
24.4139
23.8065
23.12
22.3533
21.5062
20.5794
19.5745
18.4941
17.3418
16.1225
14.8421
13.5076
12.127
10.7094
9.26619
7.80931
6.34819
4.8946
3.46085
2.05942
0.702603
-0.597907
-1.8313
-2.98778
-4.05862
-5.03614
-5.91349
-6.68461
-7.34624
-7.89336
-8.32099
-8.6248
-8.79999
-8.8408
-8.7402
-8.4897
-8.07915
-7.49604
-6.72437
-5.74388
-4.5297
-3.05035
-1.2711
0.869179
3.45005
6.04517
11.0211
12.263
-0.0599787
-0.0588317
-0.0408616
-0.0304582
-0.0228493
-0.0172235
-0.0127748
-0.00911119
-0.00578999
19.1918
19.1991
19.2141
19.2397
19.285
19.3556
19.4481
19.5562
19.6791
19.8169
19.9693
20.1361
20.317
20.5119
20.7204
20.9422
21.177
21.4242
21.6832
21.9535
22.2343
22.5248
22.8244
23.1322
23.4474
23.7689
24.0957
24.4263
24.7593
25.093
25.4257
25.7556
26.0809
26.3995
26.709
27.007
27.2907
27.557
27.8028
28.0245
28.2183
28.3803
28.5065
28.5929
28.6352
28.6291
28.57
28.4533
28.2744
28.0288
27.712
27.3201
26.8491
26.2957
25.6568
24.9302
24.1143
23.2085
22.213
21.1293
19.9599
18.7086
17.3804
15.9821
14.5213
13.0072
11.4485
9.86232
8.25794
6.64721
5.0436
3.46099
1.9131
0.413318
-1.0256
-2.39199
-3.67544
-4.86678
-5.95812
-6.9427
-7.81479
-8.57013
-9.20777
-9.72266
-10.1119
-10.3723
-10.4996
-10.489
-10.3342
-10.0275
-9.55872
-8.91419
-8.076
-7.02152
-5.72156
-4.14235
-2.22025
0.0988127
2.45511
7.13003
8.06055
-0.0456281
-0.0621544
-0.0319946
-0.0233658
-0.0169647
-0.0128173
-0.00977433
-0.0073802
-0.00523048
20.1921
20.1999
20.2161
20.2438
20.2936
20.3705
20.4696
20.5844
20.7149
20.8614
21.0234
21.2009
21.3935
21.6012
21.8237
22.0606
22.3116
22.5762
22.8538
23.1436
23.445
23.7572
24.0796
24.4112
24.7513
25.0988
25.4525
25.8109
26.1726
26.5359
26.8991
27.2603
27.6177
27.969
28.3118
28.6435
28.9611
29.2614
29.541
29.7959
30.0223
30.2159
30.3725
30.4875
30.5563
30.5739
30.5354
30.4354
30.2687
30.0302
29.7147
29.3176
28.8342
28.2604
27.5925
26.8274
25.963
24.998
23.9323
22.7669
21.5043
20.1483
18.7045
17.18
15.5836
13.9262
12.2133
10.4724
8.70778
6.93437
5.16754
3.42294
1.71586
0.0610696
-1.5275
-3.03724
-4.45691
-5.77691
-6.98915
-8.08713
-9.06582
-9.92151
-10.6525
-11.2591
-11.739
-12.0902
-12.3109
-12.3988
-12.3505
-12.1613
-11.824
-11.3286
-10.6605
-9.80101
-8.72455
-7.39991
-5.76495
-3.78455
-1.7366
2.67785
2.84716
-0.0117213
-0.0618829
-0.0129928
-0.0127376
-0.00883623
-0.00721369
-0.00613994
-0.00533069
-0.00458024
21.1758
21.1842
21.2016
21.2315
21.2862
21.3696
21.475
21.5966
21.735
21.8903
22.0621
22.2503
22.4549
22.6757
22.9124
23.1648
23.4325
23.7148
24.0113
24.3212
24.6439
24.9785
25.3245
25.6808
26.0468
26.4212
26.8029
27.1904
27.5823
27.9768
28.3722
28.7668
29.1584
29.5449
29.9237
30.292
30.6466
30.9841
31.3008
31.5928
31.8558
32.0854
32.2768
32.4252
32.5253
32.5718
32.5589
32.4807
32.3314
32.1051
31.7959
31.3983
30.9068
30.3164
29.6224
28.821
27.9091
26.8849
25.7476
24.4977
23.1377
21.6714
20.1046
18.4448
16.7014
14.8862
13.0131
11.1005
9.16048
7.20923
5.26411
3.34267
1.46213
-0.361111
-2.11168
-3.77581
-5.34142
-6.79836
-8.13845
-9.35555
-10.4454
-11.4055
-12.2347
-12.9344
-13.5074
-13.953
-14.2717
-14.4641
-14.5303
-14.469
-14.2773
-13.9496
-13.4765
-12.8442
-12.0333
-11.0178
-9.74277
-8.19469
-6.64351
0.307464
0.311546
0.0964324
0.0144919
0.0256323
0.00239053
0.00137122
-0.000917764
-0.00221163
-0.00313961
-0.00388084
22.1421
22.1511
22.1697
22.2021
22.2618
22.3516
22.4632
22.5918
22.7382
22.9024
23.0842
23.2835
23.5002
23.7344
23.9856
24.2538
24.5383
24.8388
25.1547
25.4852
25.8298
26.1875
26.5578
26.9397
27.3324
27.7348
28.1457
28.5636
28.9871
29.4144
29.844
30.2739
30.7022
31.1264
31.5439
31.9517
32.3465
32.7247
33.0824
33.4155
33.7195
33.9896
34.2208
34.4077
34.5446
34.6254
34.6438
34.5933
34.4674
34.2592
33.9621
33.5696
33.075
32.4724
31.7561
30.9211
29.9635
28.8805
27.6706
26.3338
24.8723
23.2897
21.592
19.787
17.8848
15.8988
13.8483
11.7492
9.61724
7.47115
5.33055
3.21547
1.14533
-0.861382
-2.78756
-4.61805
-6.33976
-7.94201
-9.4166
-10.7579
-11.9625
-13.0294
-13.959
-14.7534
-15.4184
-15.9591
-16.3775
-16.6773
-16.8625
-16.936
-16.9
-16.7543
-16.4958
-16.118
-15.6098
-14.9542
-14.1099
-13.0889
-12.2102
0.137237
0.201007
0.0914102
0.0484133
0.0403843
0.014538
0.0111089
0.0049076
0.00141895
-0.00110048
-0.00318771
23.09
23.0996
23.1194
23.1545
23.2194
23.3155
23.4333
23.5689
23.7235
23.8968
24.0887
24.2992
24.5283
24.776
25.0421
25.3262
25.628
25.9471
26.2827
26.6344
27.0014
27.3829
27.7783
28.1866
28.6069
29.0383
29.4795
29.9291
30.3856
30.8476
31.3132
31.7807
32.2479
32.7124
33.1714
33.6218
34.0601
34.4827
34.8854
35.2639
35.6135
35.9292
36.2055
36.4365
36.616
36.7373
36.7935
36.7774
36.6815
36.4983
36.2199
35.8388
35.3472
34.7379
34.0038
33.139
32.1382
30.9975
29.7146
28.2888
26.7217
25.0168
23.1799
21.219
19.1447
16.9716
14.7255
12.4221
10.0795
7.71917
5.36357
3.03566
0.757656
-1.44943
-3.56634
-5.57621
-7.46479
-9.22082
-10.8361
-12.3056
-13.6272
-14.8015
-15.831
-16.7201
-17.4749
-18.1067
-18.623
-19.0294
-19.334
-19.5448
-19.6693
-19.7141
-19.6836
-19.5804
-19.4037
-19.1491
-18.7927
-18.366
-18.1888
0.0719027
0.156988
0.0668035
0.0501175
0.0407022
0.0198772
0.0162359
0.00845625
0.00401056
0.00046032
-0.00259406
24.0185
24.0287
24.0497
24.0877
24.158
24.2601
24.384
24.5269
24.6896
24.8721
25.0743
25.2963
25.538
25.7995
26.0806
26.381
26.7004
27.0383
27.3942
27.7674
28.1574
28.5633
28.9845
29.4199
29.8689
30.3302
30.8028
31.2854
31.7766
32.2748
32.7784
33.2856
33.7942
34.3016
34.805
35.3012
35.7865
36.2571
36.709
37.1375
37.5378
37.9044
38.2315
38.5127
38.7413
38.9099
39.011
39.0367
38.9786
38.828
38.5761
38.2138
37.7323
37.1227
36.3767
35.4868
34.4463
33.25
31.8945
30.3782
28.7017
26.8682
24.8834
22.7551
20.4937
18.1129
15.6516
13.1236
10.5489
7.9521
5.35904
2.79627
0.289512
-2.1371
-4.46164
-6.66516
-8.73203
-10.6504
-12.4121
-14.0129
-15.4521
-16.7323
-17.8587
-18.8385
-19.6801
-20.3958
-21.0028
-21.5107
-21.9305
-22.2755
-22.5596
-22.7964
-22.9993
-23.1811
-23.3534
-23.5275
-23.7021
-23.9245
-24.4878
0.0391894
0.105382
0.0457604
0.0483557
0.0371459
0.0216886
0.018114
0.0100607
0.00552676
0.00146744
-0.00213528
24.9267
24.9375
24.9598
25.0007
25.0763
25.1844
25.3144
25.4644
25.6355
25.8273
26.04
26.2735
26.5281
26.8036
27.0999
27.4168
27.754
28.1111
28.4876
28.8829
29.2964
29.7273
30.1748
30.6382
31.1165
31.6088
32.114
32.6309
33.1582
33.6944
34.238
34.7871
35.3394
35.8924
36.4431
36.9882
37.5241
38.0468
38.5522
39.0355
39.4917
39.915
40.299
40.637
40.9217
41.1452
41.2993
41.375
41.3632
41.254
41.0372
40.7025
40.2394
39.6375
38.8867
37.9778
36.9025
35.654
34.2273
32.6193
30.8297
28.8613
26.7197
24.4128
21.949
19.331
16.6334
13.8586
11.0276
8.16844
5.31178
2.48856
-0.271114
-2.93915
-5.49038
-7.90328
-10.1606
-12.2497
-14.1628
-15.8966
-17.4523
-18.8348
-20.0523
-21.1153
-22.036
-22.828
-23.5127
-24.111
-24.6364
-25.1066
-25.5421
-25.9644
-26.3963
-26.8621
-27.3868
-28
-28.7363
-29.6481
-31.0065
0.0219724
0.0724567
0.033749
0.0423925
0.0323394
0.0212713
0.0178634
0.0103423
0.00617057
0.00198673
-0.00180745
25.8134
25.825
25.8484
25.8922
25.9733
26.0871
26.2232
26.3805
26.5599
26.7612
26.9844
27.2298
27.4973
27.787
28.0987
28.4323
28.7876
29.1641
29.5616
29.9794
30.4168
30.8732
31.3478
31.8397
32.3483
32.8725
33.4114
33.9639
34.5288
35.1047
35.6902
36.2833
36.8818
37.4829
38.0838
38.6811
39.2711
39.8501
40.4136
40.9568
41.4744
41.9603
42.4079
42.8098
43.1582
43.4448
43.6605
43.7956
43.8396
43.7817
43.6101
43.313
42.8783
42.2935
41.5468
40.6268
39.5233
38.2272
36.7314
35.0313
33.1253
31.0156
28.7083
26.2133
23.5381
20.6277
17.6781
14.6337
11.5182
8.36638
5.21514
2.10139
-0.939368
-3.87413
-6.67365
-9.31336
-11.7741
-14.0424
-16.1109
-17.9777
-19.6462
-21.1244
-22.4239
-23.559
-24.546
-25.4033
-26.1517
-26.8201
-27.436
-28.0155
-28.586
-29.1779
-29.8236
-30.561
-31.4234
-32.4528
-33.7681
-35.3876
-37.6048
0.0116101
0.0517585
0.026719
0.0365313
0.0265653
0.0194343
0.0163383
0.00977314
0.00613736
0.00210498
-0.0015972
26.6776
26.6899
26.7146
26.7614
26.8477
26.9672
27.1093
27.2739
27.4617
27.6726
27.9066
28.1638
28.4444
28.7484
29.0757
29.4262
29.7997
30.196
30.6147
31.0552
31.517
31.9993
32.5014
33.0226
33.5621
34.1192
34.6929
35.2823
35.8863
36.5037
37.1329
37.7721
38.4189
39.0708
39.7247
40.3775
41.0256
41.665
42.2913
42.8997
43.4844
44.0393
44.5572
45.0305
45.4511
45.8097
46.0966
46.3011
46.4117
46.4161
46.3013
46.0535
45.6588
45.1027
44.3709
43.4497
42.3262
40.9887
39.4277
37.6361
35.6106
33.3524
30.8684
28.1766
25.3217
21.9777
18.7991
15.4595
12.0248
8.54341
5.06058
1.62051
-1.73443
-4.96528
-8.0378
-10.9237
-13.6015
-16.057
-18.2835
-20.2811
-22.0561
-23.6199
-24.9884
-26.1802
-27.2163
-28.1201
-28.9157
-29.6347
-30.3148
-30.9804
-31.6614
-32.3971
-33.2267
-34.2115
-35.3961
-36.8571
-38.6021
-40.8572
-43.9576
0.00765627
0.0388219
0.0224275
0.0312386
0.0216494
0.0171352
0.0142616
0.00874936
0.00564048
0.00192392
-0.00148278
27.5181
27.5312
27.5571
27.607
27.6984
27.8235
27.9716
28.1435
28.3398
28.5603
28.8051
29.0743
29.3681
29.6865
30.0295
30.397
30.7889
31.2051
31.6452
32.1088
32.5952
33.1039
33.634
34.185
34.7562
35.347
35.9565
36.5841
37.2286
37.889
38.5638
39.2509
39.9483
40.6534
41.3633
42.0749
42.7848
43.4889
44.1829
44.8617
45.5196
46.1499
46.7455
47.2984
47.7997
48.24
48.6085
48.8936
49.0827
49.162
49.1171
48.9321
48.5912
48.0773
47.3736
46.4634
45.3305
43.9602
42.3397
40.459
38.3117
35.8965
33.217
30.282
27.0973
23.6252
20.0571
16.3554
12.5525
8.69575
4.83676
1.02779
-2.6806
-6.24189
-9.61573
-12.7693
-15.6787
-18.3288
-20.7142
-22.8375
-24.7088
-26.344
-27.7638
-28.9922
-30.0555
-30.982
-31.8022
-32.5471
-33.2609
-33.9813
-34.7393
-35.5833
-36.5531
-37.6998
-39.1088
-40.8663
-43.0552
-45.8568
-49.58
0.00509227
0.0309317
0.0195435
0.0265355
0.0177456
0.014738
0.0120094
0.00747227
0.00483409
0.00152996
-0.00144615
28.3338
28.3475
28.3747
28.4278
28.5242
28.6546
28.8088
28.988
29.1928
29.423
29.6787
29.96
30.267
30.5999
30.9586
31.3432
31.7536
32.1898
32.6515
33.1383
33.6496
34.1849
34.7435
35.3248
35.9284
36.5536
37.2
37.8669
38.5533
39.2582
39.98
40.717
41.467
42.2278
42.9966
43.7704
44.5458
45.319
46.0855
46.8402
47.5772
48.2898
48.9706
49.6113
50.2029
50.735
51.1964
51.5743
51.8551
52.0235
52.0632
51.9568
51.6856
51.2301
50.5702
49.6859
48.5573
47.1657
45.4943
43.5292
41.2602
38.6825
35.7972
32.6113
29.1331
25.3531
21.4183
17.3204
13.1012
8.81675
4.52858
0.299785
-3.80863
-7.74078
-11.4486
-14.894
-18.05
-20.9012
-23.4437
-25.684
-27.637
-29.324
-30.7721
-32.0114
-33.0743
-33.9948
-34.8089
-35.553
-36.2658
-36.9983
-37.7912
-38.6769
-39.7146
-40.9798
-42.5504
-44.5396
-47.0521
-50.2899
-54.4812
0.00439892
0.0265174
0.0173082
0.0224946
0.014099
0.0125624
0.00973425
0.00605001
0.00382626
0.00099858
-0.00147181
29.1235
29.1377
29.1663
29.2225
29.3238
29.4594
29.6197
29.8063
30.0197
30.2597
30.5262
30.8196
31.1399
31.4872
31.8616
32.2632
32.6922
33.1485
33.6318
34.1419
34.6783
35.2405
35.8278
36.4399
37.0764
37.7369
38.4211
39.1283
39.8577
40.6083
41.3787
42.1672
42.9719
43.7907
44.6212
45.4604
46.3051
47.1516
47.9954
48.8313
49.6536
50.4554
51.2292
51.9666
52.6582
53.2932
53.8595
54.3436
54.7304
55.0036
55.1449
55.1347
54.9517
54.5735
53.9765
53.1365
52.0293
50.6317
48.9216
46.8799
44.4917
41.7481
38.6478
35.2008
31.4374
27.2145
22.9038
18.3657
13.6729
8.89774
4.11656
-0.593546
-5.15805
-9.50912
-13.5891
-17.3531
-20.7713
-23.8279
-26.5221
-28.8656
-30.8796
-32.5924
-34.0388
-35.2567
-36.2853
-37.165
-37.9366
-38.6421
-39.3158
-40.0118
-40.7746
-41.6593
-42.7122
-44.0244
-45.6645
-47.7783
-50.4651
-54.0319
-58.4156
0.00585107
0.0233648
0.0150286
0.0188098
0.0106203
0.0101652
0.00732046
0.00443934
0.00262556
0.000345885
-0.00156248
29.886
29.9008
29.9307
29.9901
30.0961
30.2368
30.4032
30.5973
30.8192
31.0689
31.3463
31.6517
31.9852
32.3468
32.7369
33.1556
33.6031
34.0794
34.5844
35.1179
35.6794
36.2685
36.8848
37.528
38.198
38.8944
39.6171
40.3655
41.1389
41.9364
42.7566
43.5981
44.4594
45.3385
46.2332
47.141
48.0586
48.9825
49.9082
50.8308
51.7444
52.6423
53.5172
54.3604
55.1623
55.9117
56.5958
57.2003
57.7091
58.1042
58.3659
58.472
58.3985
58.1197
57.608
56.835
55.7711
54.387
52.6546
50.5484
48.0472
45.1358
41.8073
38.0653
33.9235
29.3703
24.5682
19.5126
14.2712
8.92774
3.57522
-1.6914
-6.7802
-11.6078
-16.1043
-20.217
-23.9124
-27.1759
-30.0109
-32.4367
-34.4828
-36.1871
-37.5938
-38.7502
-39.7035
-40.501
-41.1891
-41.8053
-42.3936
-43.0033
-43.695
-44.5258
-45.5214
-46.7973
-48.3931
-50.5067
-53.1483
-56.9161
-61.1049
0.00872514
0.0214021
0.0118878
0.0150947
0.00699694
0.00753774
0.00456745
0.00261016
0.00125954
-0.000400116
-0.00171551
30.6202
30.6355
30.667
30.7296
30.8401
30.9858
31.1583
31.3597
31.5902
31.8495
32.1377
32.455
32.8015
33.1775
33.5831
34.0188
34.4847
34.9809
35.5075
36.0642
36.6508
37.2669
37.9124
38.587
39.2907
40.0236
40.7853
41.5756
42.3937
43.2389
44.11
45.006
45.9256
46.8671
47.8286
48.8078
49.8017
50.8068
51.819
52.8333
53.8442
54.8454
55.8293
56.7877
57.7104
58.5861
59.4016
60.1418
60.7895
61.3256
61.7284
61.9734
62.0337
61.8801
61.4808
60.8019
59.8078
58.4624
56.7302
54.5773
51.974
48.8972
45.3326
41.2775
36.7434
31.7603
26.4233
20.776
14.898
8.8916
2.87083
-3.04539
-8.74218
-14.1159
-19.0809
-23.5748
-27.5612
-31.0277
-33.9849
-36.4625
-38.5015
-40.1521
-41.4711
-42.5169
-43.3462
-44.0121
-44.5604
-45.0405
-45.5014
-45.9917
-46.5509
-47.2642
-48.1259
-49.2818
-50.699
-52.6909
-54.9796
-58.8009
-62.4028
0.0128273
0.0185702
0.00717145
0.0106952
0.00283028
0.00445013
0.00146699
0.000527086
-0.000297666
-0.0012635
-0.00194932
31.3251
31.341
31.3739
31.4399
31.5546
31.7052
31.8839
32.0925
32.3314
32.6002
32.8991
33.2281
33.5875
33.9776
34.3987
34.8511
35.3352
35.8512
36.3992
36.9791
37.5906
38.2337
38.9083
39.6144
40.3522
41.1217
41.9229
42.7554
43.6188
44.5123
45.4353
46.3869
47.3662
48.372
49.4025
50.4557
51.529
52.6189
53.7217
54.8327
55.9468
57.058
58.1591
59.2419
60.2963
61.3107
62.2716
63.1634
63.9684