/*--------------------------------*- C++ -*----------------------------------*\
| =========                 |                                                 |
| \\      /  F ield         | OpenFOAM: The Open Source CFD Toolbox           |
|  \\    /   O peration     | Version:  v2106                                 |
|   \\  /    A nd           | Website:  www.openfoam.com                      |
|    \\/     M anipulation  |                                                 |
\*---------------------------------------------------------------------------*/
FoamFile
{
    version     2.0;
    format      ascii;
    arch        "LSB;label=32;scalar=64";
    class       surfaceScalarField;
    location    "0.9";
    object      phi;
}
// * * * * * * * * * * * * * * * * * * * * * * * * * * * * * * * * * * * * * //

dimensions      [0 3 -1 0 0 0 0];

oriented        oriented;

internalField   nonuniform List<scalar> 
59425
(
-4.49886e-09
-3.22289e-06
-9.21787e-09
-3.24599e-06
-1.3882e-08
-3.25201e-06
-1.842e-08
-3.25869e-06
-2.29159e-08
-3.26743e-06
-2.74306e-08
-3.27895e-06
-3.19854e-08
-3.29371e-06
-3.65771e-08
-3.31186e-06
-4.11943e-08
-3.33336e-06
-4.58253e-08
-3.35802e-06
-5.04621e-08
-3.38569e-06
-5.5099e-08
-3.41622e-06
-5.97314e-08
-3.44952e-06
-6.43553e-08
-3.48554e-06
-6.89676e-08
-3.52421e-06
-7.35601e-08
-3.5655e-06
-7.809e-08
-3.60944e-06
-8.24732e-08
-3.65611e-06
-8.66507e-08
-3.70549e-06
-9.05969e-08
-3.75759e-06
-9.43007e-08
-3.81239e-06
-9.7788e-08
-3.86981e-06
-1.01093e-07
-3.92981e-06
-1.04254e-07
-3.99233e-06
-1.0728e-07
-4.05725e-06
-1.10181e-07
-4.1245e-06
-1.12999e-07
-4.19404e-06
-1.15756e-07
-4.26581e-06
-1.18459e-07
-4.3397e-06
-1.21104e-07
-4.41561e-06
-1.23689e-07
-4.49343e-06
-1.26206e-07
-4.57305e-06
-1.28647e-07
-4.65432e-06
-1.31e-07
-4.73712e-06
-1.33255e-07
-4.82129e-06
-1.354e-07
-4.90668e-06
-1.3742e-07
-4.9931e-06
-1.39303e-07
-5.08038e-06
-1.41032e-07
-5.16832e-06
-1.42592e-07
-5.25671e-06
-1.43967e-07
-5.34532e-06
-1.4514e-07
-5.43392e-06
-1.46095e-07
-5.52227e-06
-1.46813e-07
-5.61012e-06
-1.4728e-07
-5.69721e-06
-1.47477e-07
-5.78327e-06
-1.4739e-07
-5.86802e-06
-1.47005e-07
-5.95119e-06
-1.46311e-07
-6.0325e-06
-1.45301e-07
-6.11168e-06
-1.43972e-07
-6.18845e-06
-1.42338e-07
-6.26257e-06
-1.40423e-07
-6.33376e-06
-1.38228e-07
-6.40175e-06
-1.3576e-07
-6.46632e-06
-1.33049e-07
-6.52733e-06
-1.30096e-07
-6.58462e-06
-1.26907e-07
-6.638e-06
-1.23482e-07
-6.68731e-06
-1.19812e-07
-6.73248e-06
-1.15918e-07
-6.77342e-06
-1.1184e-07
-6.81013e-06
-1.07615e-07
-6.84273e-06
-1.03282e-07
-6.87141e-06
-9.88864e-08
-6.89638e-06
-9.44741e-08
-6.91789e-06
-9.00939e-08
-6.9362e-06
-8.57982e-08
-6.95169e-06
-8.16442e-08
-6.9648e-06
-7.76982e-08
-6.97604e-06
-7.4043e-08
-6.98601e-06
-7.07797e-08
-6.99539e-06
-6.80207e-08
-7.00492e-06
-6.58758e-08
-7.01548e-06
-6.44387e-08
-7.02798e-06
-6.37774e-08
-7.04333e-06
-6.39257e-08
-7.0624e-06
-6.48751e-08
-7.08607e-06
-6.65915e-08
-7.11507e-06
-6.91055e-08
-7.15006e-06
-7.23071e-08
-7.19321e-06
-7.59438e-08
-7.24617e-06
-7.99944e-08
-7.30951e-06
-8.48796e-08
-7.38435e-06
-9.08133e-08
-7.47163e-06
-9.77911e-08
-7.57207e-06
-1.05734e-07
-7.68647e-06
-1.14499e-07
-7.81562e-06
-1.23869e-07
-7.96029e-06
-1.33539e-07
-8.12122e-06
-1.43072e-07
-8.29902e-06
-1.51839e-07
-8.4941e-06
-1.58907e-07
-8.70654e-06
-1.62935e-07
-8.93592e-06
-1.61786e-07
-9.18146e-06
-1.53399e-07
-9.44494e-06
-1.31734e-07
-9.72378e-06
-9.63294e-08
-1.00491e-05
-2.88331e-08
-1.04562e-05
-8.31097e-07
-1.52133e-05
-1.04844e-05
-5.69682e-05
-1.42485e-05
-2.07905e-05
-1.70324e-05
-1.72028e-05
-1.75618e-05
-1.05112e-05
-1.82564e-05
-9.86239e-06
-1.86116e-05
-7.29706e-06
-1.91198e-05
-5.83097e-06
-1.87352e-05
-3.27954e-06
-1.81047e-05
-1.58777e-06
-3.66248e-07
-6.06481e-09
-3.21683e-06
-1.21439e-08
-3.23991e-06
-1.81551e-08
-3.246e-06
-2.41244e-08
-3.25272e-06
-3.00962e-08
-3.26146e-06
-3.61024e-08
-3.27295e-06
-4.21466e-08
-3.28766e-06
-4.82162e-08
-3.30579e-06
-5.42949e-08
-3.32728e-06
-6.037e-08
-3.35195e-06
-6.64325e-08
-3.37963e-06
-7.24749e-08
-3.41018e-06
-7.84882e-08
-3.44351e-06
-8.44622e-08
-3.47957e-06
-9.03888e-08
-3.51829e-06
-9.62273e-08
-3.55966e-06
-1.01892e-07
-3.60377e-06
-1.07301e-07
-3.6507e-06
-1.1243e-07
-3.70037e-06
-1.17314e-07
-3.7527e-06
-1.21993e-07
-3.80771e-06
-1.26496e-07
-3.86531e-06
-1.30853e-07
-3.92545e-06
-1.35103e-07
-3.98808e-06
-1.39271e-07
-4.05308e-06
-1.43369e-07
-4.1204e-06
-1.47412e-07
-4.19e-06
-1.514e-07
-4.26182e-06
-1.55316e-07
-4.33579e-06
-1.59143e-07
-4.41179e-06
-1.62857e-07
-4.48972e-06
-1.66438e-07
-4.56947e-06
-1.69863e-07
-4.6509e-06
-1.73108e-07
-4.73387e-06
-1.76149e-07
-4.81825e-06
-1.7896e-07
-4.90387e-06
-1.81516e-07
-4.99055e-06
-1.83789e-07
-5.07811e-06
-1.85754e-07
-5.16636e-06
-1.87383e-07
-5.25508e-06
-1.88649e-07
-5.34405e-06
-1.89526e-07
-5.43304e-06
-1.89989e-07
-5.52181e-06
-1.90012e-07
-5.6101e-06
-1.89575e-07
-5.69765e-06
-1.88656e-07
-5.78419e-06
-1.87239e-07
-5.86944e-06
-1.85313e-07
-5.95312e-06
-1.8287e-07
-6.03495e-06
-1.7991e-07
-6.11464e-06
-1.76445e-07
-6.19192e-06
-1.72502e-07
-6.26651e-06
-1.68129e-07
-6.33813e-06
-1.63365e-07
-6.40651e-06
-1.58261e-07
-6.47142e-06
-1.52878e-07
-6.53271e-06
-1.47266e-07
-6.59023e-06
-1.41454e-07
-6.64381e-06
-1.35429e-07
-6.69334e-06
-1.29171e-07
-6.73874e-06
-1.22705e-07
-6.77989e-06
-1.16096e-07
-6.81674e-06
-1.09442e-07
-6.84938e-06
-1.02841e-07
-6.87801e-06
-9.64007e-08
-6.90282e-06
-9.02303e-08
-6.92406e-06
-8.44386e-08
-6.94199e-06
-7.91339e-08
-6.957e-06
-7.44231e-08
-6.96951e-06
-7.04151e-08
-6.98004e-06
-6.72286e-08
-6.9892e-06
-6.49967e-08
-6.99762e-06
-6.38599e-08
-7.00606e-06
-6.3955e-08
-7.01538e-06
-6.54022e-08
-7.02653e-06
-6.82947e-08
-7.04043e-06
-7.26891e-08
-7.058e-06
-7.86001e-08
-7.08015e-06
-8.60429e-08
-7.10763e-06
-9.50776e-08
-7.14103e-06
-1.05686e-07
-7.1826e-06
-1.18012e-07
-7.23384e-06
-1.32395e-07
-7.29513e-06
-1.49099e-07
-7.36765e-06
-1.68145e-07
-7.45259e-06
-1.89387e-07
-7.55083e-06
-2.12624e-07
-7.66323e-06
-2.37598e-07
-7.79065e-06
-2.63977e-07
-7.93391e-06
-2.91335e-07
-8.09386e-06
-3.19098e-07
-8.27125e-06
-3.46467e-07
-8.46673e-06
-3.72272e-07
-8.68074e-06
-3.94748e-07
-8.91345e-06
-4.11141e-07
-9.16507e-06
-4.16801e-07
-9.43928e-06
-4.05058e-07
-9.73552e-06
-3.39143e-07
-1.0115e-05
-2.43951e-07
-1.05514e-05
-1.27072e-06
-1.41865e-05
-1.11567e-05
-4.70822e-05
-1.34707e-05
-1.84765e-05
-1.50155e-05
-1.5658e-05
-1.57221e-05
-9.80455e-06
-1.63418e-05
-9.24271e-06
-1.69437e-05
-6.69519e-06
-1.74744e-05
-5.30026e-06
-1.73511e-05
-3.40282e-06
-1.69412e-05
-1.99775e-06
-8.16876e-07
-8.30304e-09
-3.20853e-06
-1.65626e-08
-3.23166e-06
-2.47396e-08
-3.23782e-06
-3.2885e-08
-3.24457e-06
-4.10449e-08
-3.2533e-06
-4.92396e-08
-3.26475e-06
-5.74663e-08
-3.27944e-06
-6.57097e-08
-3.29755e-06
-7.39523e-08
-3.31904e-06
-8.21801e-08
-3.34372e-06
-9.03816e-08
-3.37143e-06
-9.85443e-08
-3.40201e-06
-1.06652e-07
-3.4354e-06
-1.14684e-07
-3.47153e-06
-1.22621e-07
-3.51035e-06
-1.30392e-07
-3.55189e-06
-1.37953e-07
-3.59621e-06
-1.45353e-07
-3.6433e-06
-1.52646e-07
-3.69307e-06
-1.59869e-07
-3.74548e-06
-1.67039e-07
-3.80054e-06
-1.74153e-07
-3.85819e-06
-1.81204e-07
-3.9184e-06
-1.88178e-07
-3.9811e-06
-1.95042e-07
-4.04622e-06
-2.01756e-07
-4.11369e-06
-2.08305e-07
-4.18345e-06
-2.1468e-07
-4.25545e-06
-2.20867e-07
-4.3296e-06
-2.26841e-07
-4.40581e-06
-2.32576e-07
-4.48399e-06
-2.38042e-07
-4.564e-06
-2.43206e-07
-4.64573e-06
-2.48034e-07
-4.72905e-06
-2.5249e-07
-4.8138e-06
-2.56535e-07
-4.89982e-06
-2.60132e-07
-4.98695e-06
-2.63241e-07
-5.075e-06
-2.65821e-07
-5.16378e-06
-2.67833e-07
-5.25306e-06
-2.69237e-07
-5.34264e-06
-2.69995e-07
-5.43228e-06
-2.70069e-07
-5.52174e-06
-2.69426e-07
-5.61074e-06
-2.68033e-07
-5.69904e-06
-2.65864e-07
-5.78636e-06
-2.62897e-07
-5.8724e-06
-2.59116e-07
-5.9569e-06
-2.54513e-07
-6.03955e-06
-2.4909e-07
-6.12006e-06
-2.42857e-07
-6.19815e-06
-2.35837e-07
-6.27353e-06
-2.28057e-07
-6.34591e-06
-2.19536e-07
-6.41503e-06
-2.10315e-07
-6.48064e-06
-2.00485e-07
-6.54254e-06
-1.90179e-07
-6.60054e-06
-1.79545e-07
-6.65444e-06
-1.68735e-07
-6.70415e-06
-1.57867e-07
-6.74961e-06
-1.46983e-07
-6.79077e-06
-1.36131e-07
-6.82759e-06
-1.25436e-07
-6.86007e-06
-1.15056e-07
-6.88839e-06
-1.05166e-07
-6.91271e-06
-9.59468e-08
-6.93327e-06
-8.75813e-08
-6.95036e-06
-8.02497e-08
-6.96433e-06
-7.4128e-08
-6.97563e-06
-6.93892e-08
-6.98478e-06
-6.62071e-08
-6.99238e-06
-6.47574e-08
-6.99907e-06
-6.52131e-08
-7.0056e-06
-6.77408e-08
-7.01285e-06
-7.24949e-08
-7.02178e-06
-7.96142e-08
-7.03331e-06
-8.92175e-08
-7.0484e-06
-1.01412e-07
-7.06796e-06
-1.16366e-07
-7.09267e-06
-1.34294e-07
-7.1231e-06
-1.55547e-07
-7.16135e-06
-1.80014e-07
-7.20938e-06
-2.07599e-07
-7.26755e-06
-2.3833e-07
-7.33692e-06
-2.72209e-07
-7.41871e-06
-3.09074e-07
-7.51396e-06
-3.48672e-07
-7.62364e-06
-3.90684e-07
-7.74864e-06
-4.34726e-07
-7.88987e-06
-4.80339e-07
-8.04825e-06
-5.26943e-07
-8.22465e-06
-5.73781e-07
-8.41989e-06
-6.19841e-07
-8.63468e-06
-6.63681e-07
-8.86961e-06
-7.03344e-07
-9.12541e-06
-7.36649e-07
-9.40597e-06
-7.58726e-07
-9.71344e-06
-7.63236e-07
-1.01105e-05
-7.65566e-07
-1.05491e-05
-1.54589e-06
-1.34062e-05
-8.32103e-06
-4.0307e-05
-9.55374e-06
-1.72438e-05
-1.17774e-05
-1.34344e-05
-1.32608e-05
-8.32113e-06
-1.4313e-05
-8.19053e-06
-1.50637e-05
-5.94448e-06
-1.55926e-05
-4.77137e-06
-1.57683e-05
-3.22708e-06
-1.57534e-05
-2.01266e-06
-9.26428e-07
-1.08458e-08
-3.19768e-06
-2.16698e-08
-3.22083e-06
-3.2402e-08
-3.22709e-06
-4.3093e-08
-3.23388e-06
-5.37875e-08
-3.2426e-06
-6.45052e-08
-3.25404e-06
-7.52451e-08
-3.2687e-06
-8.59945e-08
-3.2868e-06
-9.67379e-08
-3.30829e-06
-1.07461e-07
-3.333e-06
-1.1815e-07
-3.36074e-06
-1.28789e-07
-3.39138e-06
-1.39361e-07
-3.42483e-06
-1.49852e-07
-3.46104e-06
-1.60244e-07
-3.49996e-06
-1.7053e-07
-3.54161e-06
-1.8074e-07
-3.586e-06
-1.90907e-07
-3.63313e-06
-2.0102e-07
-3.68296e-06
-2.1105e-07
-3.73545e-06
-2.20999e-07
-3.79059e-06
-2.30862e-07
-3.84833e-06
-2.40623e-07
-3.90864e-06
-2.50259e-07
-3.97147e-06
-2.59735e-07
-4.03674e-06
-2.69011e-07
-4.10441e-06
-2.78053e-07
-4.17441e-06
-2.86832e-07
-4.24667e-06
-2.95317e-07
-4.32112e-06
-3.03474e-07
-4.39766e-06
-3.11265e-07
-4.47619e-06
-3.1865e-07
-4.55661e-06
-3.25585e-07
-4.6388e-06
-3.32025e-07
-4.72261e-06
-3.37921e-07
-4.8079e-06
-3.43224e-07
-4.89452e-06
-3.47882e-07
-4.98229e-06
-3.51845e-07
-5.07104e-06
-3.55059e-07
-5.16056e-06
-3.57473e-07
-5.25065e-06
-3.59033e-07
-5.34108e-06
-3.59692e-07
-5.43162e-06
-3.59399e-07
-5.52203e-06
-3.58113e-07
-5.61203e-06
-3.55792e-07
-5.70136e-06
-3.52402e-07
-5.78975e-06
-3.47916e-07
-5.87689e-06
-3.42314e-07
-5.9625e-06
-3.35589e-07
-6.04627e-06
-3.2774e-07
-6.12791e-06
-3.18782e-07
-6.20711e-06
-3.0874e-07
-6.28357e-06
-2.97653e-07
-6.357e-06
-2.85565e-07
-6.42712e-06
-2.72544e-07
-6.49366e-06
-2.58683e-07
-6.5564e-06
-2.44102e-07
-6.61512e-06
-2.28921e-07
-6.66962e-06
-2.13295e-07
-6.71977e-06
-1.9744e-07
-6.76546e-06
-1.81572e-07
-6.80664e-06
-1.65878e-07
-6.84328e-06
-1.50528e-07
-6.87542e-06
-1.35737e-07
-6.90318e-06
-1.21747e-07
-6.9267e-06
-1.0881e-07
-6.94621e-06
-9.71873e-08
-6.96198e-06
-8.71376e-08
-6.97438e-06
-7.89185e-08
-6.98385e-06
-7.27838e-08
-6.99092e-06
-6.89823e-08
-6.99618e-06
-6.77515e-08
-7.0003e-06
-6.93137e-08
-7.00404e-06
-7.38752e-08
-7.00829e-06
-8.16317e-08
-7.01402e-06
-9.27723e-08
-7.02217e-06
-1.07481e-07
-7.03369e-06
-1.25942e-07
-7.0495e-06
-1.48402e-07
-7.07022e-06
-1.74944e-07
-7.09656e-06
-2.05825e-07
-7.13047e-06
-2.40996e-07
-7.1742e-06
-2.80378e-07
-7.22816e-06
-3.23909e-07
-7.29339e-06
-3.71501e-07
-7.37112e-06
-4.22954e-07
-7.46251e-06
-4.77985e-07
-7.56861e-06
-5.36255e-07
-7.69037e-06
-5.97371e-07
-7.82875e-06
-6.60879e-07
-7.98474e-06
-7.26232e-07
-8.15929e-06
-7.92759e-07
-8.35336e-06
-8.59638e-07
-8.5678e-06
-9.25797e-07
-8.80345e-06
-9.90058e-07
-9.06115e-06
-1.05213e-06
-9.34391e-06
-1.10867e-06
-9.6569e-06
-1.16851e-06
-1.00507e-05
-1.22347e-06
-1.04941e-05
-1.79755e-06
-1.28321e-05
-7.24243e-06
-3.48621e-05
-8.07008e-06
-1.64162e-05
-1.01653e-05
-1.13392e-05
-1.16238e-05
-6.8627e-06
-1.27061e-05
-7.10817e-06
-1.35318e-05
-5.11885e-06
-1.41024e-05
-4.20069e-06
-1.44134e-05
-2.91616e-06
-1.45138e-05
-1.91223e-06
-9.52209e-07
-1.34974e-08
-3.18418e-06
-2.70245e-08
-3.20731e-06
-4.04801e-08
-3.21363e-06
-5.38932e-08
-3.22047e-06
-6.72964e-08
-3.2292e-06
-8.07063e-08
-3.24063e-06
-9.41243e-08
-3.25528e-06
-1.07542e-07
-3.27338e-06
-1.20949e-07
-3.29489e-06
-1.34331e-07
-3.31962e-06
-1.47676e-07
-3.34739e-06
-1.60972e-07
-3.37808e-06
-1.74205e-07
-3.4116e-06
-1.87379e-07
-3.44787e-06
-2.00482e-07
-3.48685e-06
-2.13529e-07
-3.52856e-06
-2.26523e-07
-3.57301e-06
-2.39457e-07
-3.62019e-06
-2.5232e-07
-3.6701e-06
-2.65085e-07
-3.72269e-06
-2.77735e-07
-3.77794e-06
-2.90251e-07
-3.83582e-06
-3.02609e-07
-3.89629e-06
-3.14779e-07
-3.9593e-06
-3.26724e-07
-4.0248e-06
-3.38404e-07
-4.09273e-06
-3.49778e-07
-4.16304e-06
-3.60806e-07
-4.23564e-06
-3.71447e-07
-4.31048e-06
-3.81655e-07
-4.38745e-06
-3.91382e-07
-4.46647e-06
-4.00577e-07
-4.54742e-06
-4.09183e-07
-4.63019e-06
-4.17145e-07
-4.71464e-06
-4.24401e-07
-4.80064e-06
-4.30889e-07
-4.88803e-06
-4.36545e-07
-4.97664e-06
-4.41305e-07
-5.06628e-06
-4.45103e-07
-5.15676e-06
-4.47873e-07
-5.24788e-06
-4.49551e-07
-5.33941e-06
-4.50075e-07
-5.4311e-06
-4.49385e-07
-5.52272e-06
-4.47426e-07
-5.61399e-06
-4.44149e-07
-5.70464e-06
-4.39512e-07
-5.79438e-06
-4.3348e-07
-5.88292e-06
-4.2603e-07
-5.96995e-06
-4.17151e-07
-6.05515e-06
-4.06845e-07
-6.13822e-06
-3.95128e-07
-6.21883e-06
-3.82035e-07
-6.29667e-06
-3.67615e-07
-6.37142e-06
-3.51936e-07
-6.4428e-06
-3.35091e-07
-6.51051e-06
-3.17197e-07
-6.57429e-06
-2.98397e-07
-6.63392e-06
-2.78855e-07
-6.68917e-06
-2.5876e-07
-6.73987e-06
-2.38331e-07
-6.78589e-06
-2.17813e-07
-6.82716e-06
-1.97482e-07
-6.86361e-06
-1.77579e-07
-6.89533e-06
-1.58393e-07
-6.92237e-06
-1.40237e-07
-6.94486e-06
-1.23442e-07
-6.96301e-06
-1.0835e-07
-6.97707e-06
-9.53051e-08
-6.98743e-06
-8.46526e-08
-6.9945e-06
-7.67362e-08
-6.99883e-06
-7.1891e-08
-7.00103e-06
-7.04335e-08
-7.00176e-06
-7.26552e-08
-7.00181e-06
-7.88233e-08
-7.00212e-06
-8.91866e-08
-7.00366e-06
-1.03985e-07
-7.00737e-06
-1.23457e-07
-7.01422e-06
-1.47825e-07
-7.02513e-06
-1.77235e-07
-7.04081e-06
-2.11627e-07
-7.06216e-06
-2.51314e-07
-7.09078e-06
-2.9652e-07
-7.129e-06
-3.47138e-07
-7.17754e-06
-4.0303e-07
-7.23749e-06
-4.64035e-07
-7.31011e-06
-5.29923e-07
-7.39662e-06
-6.00404e-07
-7.49813e-06
-6.75137e-07
-7.61563e-06
-7.53729e-07
-7.75016e-06
-8.35725e-07
-7.90274e-06
-9.20584e-07
-8.07443e-06
-1.00767e-06
-8.26627e-06
-1.09627e-06
-8.47921e-06
-1.18549e-06
-8.71423e-06
-1.2746e-06
-8.97204e-06
-1.36396e-06
-9.25454e-06
-1.45196e-06
-9.5689e-06
-1.55279e-06
-9.94984e-06
-1.64472e-06
-1.04022e-05
-2.0505e-06
-1.24264e-05
-6.40041e-06
-3.05122e-05
-6.94372e-06
-1.58729e-05
-8.86032e-06
-9.42259e-06
-1.02859e-05
-5.43709e-06
-1.13966e-05
-5.99748e-06
-1.22446e-05
-4.2709e-06
-1.28403e-05
-3.60494e-06
-1.32281e-05
-2.52844e-06
-1.34255e-05
-1.71484e-06
-8.88815e-07
-1.62113e-08
-3.16797e-06
-3.24974e-08
-3.19102e-06
-4.87367e-08
-3.1974e-06
-6.49393e-08
-3.20427e-06
-8.11239e-08
-3.21302e-06
-9.73019e-08
-3.22445e-06
-1.13475e-07
-3.23911e-06
-1.29639e-07
-3.25722e-06
-1.45786e-07
-3.27874e-06
-1.61905e-07
-3.3035e-06
-1.77987e-07
-3.33131e-06
-1.94023e-07
-3.36204e-06
-2.10011e-07
-3.39561e-06
-2.25936e-07
-3.43194e-06
-2.41798e-07
-3.47099e-06
-2.57594e-07
-3.51276e-06
-2.73322e-07
-3.55728e-06
-2.88969e-07
-3.60455e-06
-3.0452e-07
-3.65454e-06
-3.19948e-07
-3.70726e-06
-3.3523e-07
-3.76265e-06
-3.50338e-07
-3.82071e-06
-3.65241e-07
-3.88138e-06
-3.79903e-07
-3.94464e-06
-3.94283e-07
-4.01042e-06
-4.08335e-07
-4.07868e-06
-4.22013e-07
-4.14936e-06
-4.35266e-07
-4.22239e-06
-4.48043e-07
-4.2977e-06
-4.60288e-07
-4.3752e-06
-4.71943e-07
-4.45481e-06
-4.82945e-07
-4.53642e-06
-4.93226e-07
-4.61991e-06
-5.02718e-07
-4.70515e-06
-5.11348e-07
-4.79201e-06
-5.19039e-07
-4.88034e-06
-5.25715e-07
-4.96996e-06
-5.31297e-07
-5.0607e-06
-5.35706e-07
-5.15235e-06
-5.38861e-07
-5.24472e-06
-5.40685e-07
-5.33758e-06
-5.41102e-07
-5.43068e-06
-5.40039e-07
-5.52378e-06
-5.37429e-07
-5.6166e-06
-5.33212e-07
-5.70886e-06
-5.27336e-07
-5.80026e-06
-5.19758e-07
-5.8905e-06
-5.10449e-07
-5.97926e-06
-4.99394e-07
-6.06621e-06
-4.86594e-07
-6.15102e-06
-4.72068e-07
-6.23335e-06
-4.55856e-07
-6.31288e-06
-4.38018e-07
-6.38926e-06
-4.18642e-07
-6.46217e-06
-3.97838e-07
-6.53131e-06
-3.7575e-07
-6.59638e-06
-3.5255e-07
-6.65712e-06
-3.28441e-07
-6.71327e-06
-3.03662e-07
-6.76465e-06
-2.78481e-07
-6.81107e-06
-2.53205e-07
-6.85243e-06
-2.28157e-07
-6.88866e-06
-2.03665e-07
-6.91982e-06
-1.80022e-07
-6.94601e-06
-1.57602e-07
-6.96728e-06
-1.36815e-07
-6.98379e-06
-1.18082e-07
-6.99581e-06
-1.01833e-07
-7.00367e-06
-8.85029e-08
-7.00783e-06
-7.8524e-08
-7.00881e-06
-7.23191e-08
-7.00723e-06
-7.02886e-08
-7.00379e-06
-7.28056e-08
-6.9993e-06
-8.02149e-08
-6.99471e-06
-9.28342e-08
-6.99104e-06
-1.10959e-07
-6.98925e-06
-1.34872e-07
-6.99031e-06
-1.64784e-07
-6.99522e-06
-2.00648e-07
-7.00494e-06
-2.42592e-07
-7.02022e-06
-2.90967e-07
-7.04241e-06
-3.46095e-07
-7.07387e-06
-4.07866e-07
-7.11577e-06
-4.76092e-07
-7.16927e-06
-5.50572e-07
-7.23563e-06
-6.31074e-07
-7.31612e-06
-7.17324e-07
-7.41188e-06
-8.08987e-07
-7.52397e-06
-9.05661e-07
-7.65348e-06
-1.00687e-06
-7.80153e-06
-1.11205e-06
-7.96926e-06
-1.22054e-06
-8.15777e-06
-1.33162e-06
-8.36813e-06
-1.4444e-06
-8.60145e-06
-1.55815e-06
-8.85829e-06
-1.67291e-06
-9.13979e-06
-1.78764e-06
-9.45416e-06
-1.91528e-06
-9.8222e-06
-2.0287e-06
-1.02888e-05
-2.32649e-06
-1.21286e-05
-5.77318e-06
-2.70655e-05
-6.20834e-06
-1.54377e-05
-7.99948e-06
-7.63145e-06
-9.29667e-06
-4.1399e-06
-1.03824e-05
-4.91174e-06
-1.12052e-05
-3.44806e-06
-1.18045e-05
-3.00572e-06
-1.22184e-05
-2.11453e-06
-1.24554e-05
-1.47777e-06
-7.87953e-07
-1.89611e-08
-3.14901e-06
-3.80324e-08
-3.17195e-06
-5.70762e-08
-3.17835e-06
-7.60905e-08
-3.18525e-06
-9.50834e-08
-3.19402e-06
-1.14061e-07
-3.20547e-06
-1.33024e-07
-3.22014e-06
-1.5197e-07
-3.23827e-06
-1.70893e-07
-3.25982e-06
-1.89787e-07
-3.28461e-06
-2.08645e-07
-3.31245e-06
-2.27459e-07
-3.34323e-06
-2.46214e-07
-3.37686e-06
-2.64888e-07
-3.41327e-06
-2.83494e-07
-3.45239e-06
-3.02023e-07
-3.49423e-06
-3.20469e-07
-3.53883e-06
-3.38818e-07
-3.5862e-06
-3.57048e-07
-3.63631e-06
-3.75133e-07
-3.68917e-06
-3.93044e-07
-3.74474e-06
-4.10746e-07
-3.80301e-06
-4.28204e-07
-3.86393e-06
-4.45374e-07
-3.92747e-06
-4.62211e-07
-3.99358e-06
-4.78663e-07
-4.06223e-06
-4.94676e-07
-4.13335e-06
-5.10191e-07
-4.20688e-06
-5.25146e-07
-4.28274e-06
-5.39477e-07
-4.36087e-06
-5.53112e-07
-4.44118e-06
-5.65978e-07
-4.52355e-06
-5.77996e-07
-4.60789e-06
-5.89084e-07
-4.69406e-06
-5.99155e-07
-4.78194e-06
-6.08121e-07
-4.87137e-06
-6.15891e-07
-4.96219e-06
-6.2237e-07
-5.05422e-06
-6.27464e-07
-5.14726e-06
-6.3108e-07
-5.24111e-06
-6.33122e-07
-5.33554e-06
-6.33501e-07
-5.4303e-06
-6.3213e-07
-5.52515e-06
-6.28928e-07
-5.6198e-06
-6.23821e-07
-5.71396e-06
-6.16746e-07
-5.80733e-06
-6.0765e-07
-5.89959e-06
-5.96497e-07
-5.99041e-06
-5.83264e-07
-6.07944e-06
-5.6795e-07
-6.16633e-06
-5.50574e-07
-6.25073e-06
-5.31181e-07
-6.33227e-06
-5.0984e-07
-6.4106e-06
-4.8665e-07
-6.48536e-06
-4.61744e-07
-6.55622e-06
-4.35285e-07
-6.62284e-06
-4.07476e-07
-6.68493e-06
-3.78555e-07
-6.74219e-06
-3.48799e-07
-6.7944e-06
-3.18529e-07
-6.84134e-06
-2.88102e-07
-6.88286e-06
-2.57923e-07
-6.91884e-06
-2.28449e-07
-6.94929e-06
-2.00047e-07
-6.97441e-06
-1.73063e-07
-6.99427e-06
-1.47969e-07
-7.00889e-06
-1.25269e-07
-7.01851e-06
-1.0548e-07
-7.02346e-06
-8.91248e-08
-7.02419e-06
-7.67271e-08
-7.02121e-06
-6.87962e-08
-7.01516e-06
-6.58189e-08
-7.00676e-06
-6.8255e-08
-6.99686e-06
-7.65377e-08
-6.98643e-06
-9.1066e-08
-6.97651e-06
-1.122e-07
-6.96812e-06
-1.40253e-07
-6.96226e-06
-1.75334e-07
-6.96014e-06
-2.17378e-07
-6.9629e-06
-2.66836e-07
-6.97076e-06
-3.23949e-07
-6.98529e-06
-3.88983e-07
-7.00884e-06
-4.61884e-07
-7.04287e-06
-5.42472e-07
-7.08868e-06
-6.30552e-07
-7.14755e-06
-7.25915e-07
-7.22076e-06
-8.28304e-07
-7.30949e-06
-9.37388e-07
-7.41489e-06
-1.05274e-06
-7.53813e-06
-1.17386e-06
-7.68042e-06
-1.30013e-06
-7.84298e-06
-1.43087e-06
-8.02704e-06
-1.5652e-06
-8.2338e-06
-1.70209e-06
-8.46456e-06
-1.84052e-06
-8.71986e-06
-1.97988e-06
-9.00042e-06
-2.11875e-06
-9.31529e-06
-2.26661e-06
-9.67434e-06
-2.39555e-06
-1.01599e-05
-2.6323e-06
-1.18918e-05
-5.39621e-06
-2.43016e-05
-5.82214e-06
-1.50118e-05
-7.46245e-06
-5.99114e-06
-8.59694e-06
-3.0054e-06
-9.62936e-06
-3.87932e-06
-1.03971e-05
-2.68036e-06
-1.09802e-05
-2.4226e-06
-1.13922e-05
-1.70256e-06
-1.16438e-05
-1.2261e-06
-6.69728e-07
-2.17317e-08
-3.12728e-06
-4.36019e-08
-3.15008e-06
-6.5458e-08
-3.1565e-06
-8.72906e-08
-3.16342e-06
-1.09101e-07
-3.17221e-06
-1.30891e-07
-3.18368e-06
-1.5266e-07
-3.19838e-06
-1.74405e-07
-3.21653e-06
-1.96123e-07
-3.2381e-06
-2.1781e-07
-3.26292e-06
-2.39459e-07
-3.2908e-06
-2.61047e-07
-3.32164e-06
-2.82538e-07
-3.35536e-06
-3.03962e-07
-3.39184e-06
-3.25318e-07
-3.43103e-06
-3.46594e-07
-3.47295e-06
-3.67776e-07
-3.51765e-06
-3.88845e-07
-3.56513e-06
-4.09778e-07
-3.61538e-06
-4.30546e-07
-3.6684e-06
-4.51113e-07
-3.72417e-06
-4.71443e-07
-3.78268e-06
-4.91492e-07
-3.84388e-06
-5.11214e-07
-3.90775e-06
-5.30554e-07
-3.97424e-06
-5.49457e-07
-4.04333e-06
-5.67859e-07
-4.11495e-06
-5.85695e-07
-4.18904e-06
-6.02892e-07
-4.26555e-06
-6.19376e-07
-4.34439e-06
-6.35064e-07
-4.42549e-06
-6.49872e-07
-4.50874e-06
-6.63709e-07
-4.59405e-06
-6.76478e-07
-4.68129e-06
-6.88081e-07
-4.77034e-06
-6.98414e-07
-4.86104e-06
-7.07371e-07
-4.95323e-06
-7.14842e-07
-5.04674e-06
-7.20718e-07
-5.14138e-06
-7.24887e-07
-5.23694e-06
-7.2724e-07
-5.33318e-06
-7.2767e-07
-5.42987e-06
-7.26073e-07
-5.52675e-06
-7.22353e-07
-5.62352e-06
-7.16422e-07
-5.71989e-06
-7.08202e-07
-5.81555e-06
-6.97628e-07
-5.91017e-06
-6.84654e-07
-6.00339e-06
-6.69248e-07
-6.09485e-06
-6.51404e-07
-6.18417e-06
-6.3114e-07
-6.27099e-06
-6.085e-07
-6.35491e-06
-5.83561e-07
-6.43554e-06
-5.56434e-07
-6.51249e-06
-5.27267e-07
-6.58539e-06
-4.96244e-07
-6.65386e-06
-4.63597e-07
-6.71757e-06
-4.29595e-07
-6.7762e-06
-3.94557e-07
-6.82944e-06
-3.58843e-07
-6.87706e-06
-3.22863e-07
-6.91884e-06
-2.87068e-07
-6.95463e-06
-2.52011e-07
-6.98435e-06
-2.18303e-07
-7.00812e-06
-1.86346e-07
-7.02622e-06
-1.5653e-07
-7.0387e-06
-1.29431e-07
-7.04561e-06
-1.05652e-07
-7.04724e-06
-8.58186e-08
-7.04402e-06
-7.05486e-08
-7.03648e-06
-6.04409e-08
-7.02527e-06
-5.60725e-08
-7.01113e-06
-5.79945e-08
-6.99494e-06
-6.67327e-08
-6.97769e-06
-8.27767e-08
-6.96047e-06
-1.06556e-07
-6.94434e-06
-1.38328e-07
-6.93048e-06
-1.78151e-07
-6.92032e-06
-2.26354e-07
-6.9147e-06
-2.833e-07
-6.91382e-06
-3.49109e-07
-6.91949e-06
-4.24003e-07
-6.93394e-06
-5.08004e-07
-6.95887e-06
-6.00997e-07
-6.99569e-06
-7.02833e-07
-7.04572e-06
-8.13335e-07
-7.11026e-06
-9.32258e-07
-7.19056e-06
-1.05926e-06
-7.28788e-06
-1.1939e-06
-7.40349e-06
-1.33564e-06
-7.53868e-06
-1.48384e-06
-7.69478e-06
-1.6377e-06
-7.87318e-06
-1.79618e-06
-8.07532e-06
-1.95797e-06
-8.30277e-06
-2.1217e-06
-8.55612e-06
-2.28616e-06
-8.83597e-06
-2.4492e-06
-9.15225e-06
-2.61642e-06
-9.50711e-06
-2.76128e-06
-1.0015e-05
-2.9718e-06
-1.16813e-05
-5.2401e-06
-2.20333e-05
-5.71279e-06
-1.45391e-05
-7.17857e-06
-4.52535e-06
-8.14266e-06
-2.04131e-06
-9.09893e-06
-2.92304e-06
-9.79333e-06
-1.98596e-06
-1.03428e-05
-1.8731e-06
-1.0732e-05
-1.31339e-06
-1.09794e-05
-9.7865e-07
-5.48566e-07
-2.45146e-08
-3.10276e-06
-4.91919e-08
-3.1254e-06
-7.38641e-08
-3.13182e-06
-9.85177e-08
-3.13877e-06
-1.2315e-07
-3.14758e-06
-1.47759e-07
-3.15907e-06
-1.72341e-07
-3.17379e-06
-1.96895e-07
-3.19198e-06
-2.21417e-07
-3.21358e-06
-2.45903e-07
-3.23843e-06
-2.70327e-07
-3.26638e-06
-2.94645e-07
-3.29733e-06
-3.1888e-07
-3.33113e-06
-3.43073e-07
-3.36765e-06
-3.67204e-07
-3.4069e-06
-3.91253e-07
-3.4489e-06
-4.15201e-07
-3.4937e-06
-4.39023e-07
-3.5413e-06
-4.62695e-07
-3.59171e-06
-4.86182e-07
-3.64491e-06
-5.09448e-07
-3.70091e-06
-5.32449e-07
-3.75967e-06
-5.55139e-07
-3.82119e-06
-5.77464e-07
-3.88542e-06
-5.99365e-07
-3.95234e-06
-6.2078e-07
-4.02191e-06
-6.41637e-07
-4.09409e-06
-6.61864e-07
-4.16881e-06
-6.81379e-07
-4.24603e-06
-7.00095e-07
-4.32567e-06
-7.17923e-07
-4.40766e-06
-7.34763e-07
-4.4919e-06
-7.50513e-07
-4.5783e-06
-7.65063e-07
-4.66674e-06
-7.78301e-07
-4.7571e-06
-7.90107e-07
-4.84923e-06
-8.00359e-07
-4.94298e-06
-8.08933e-07
-5.03817e-06
-8.15701e-07
-5.13462e-06
-8.20534e-07
-5.23211e-06
-8.23304e-07
-5.33041e-06
-8.23887e-07
-5.42929e-06
-8.22162e-07
-5.52847e-06
-8.18014e-07
-5.62767e-06
-8.11337e-07
-5.72657e-06
-8.02037e-07
-5.82485e-06
-7.90036e-07
-5.92217e-06
-7.75272e-07
-6.01815e-06
-7.57703e-07
-6.11241e-06
-7.37316e-07
-6.20456e-06
-7.14121e-07
-6.29419e-06
-6.88164e-07
-6.38087e-06
-6.59523e-07
-6.46418e-06
-6.28319e-07
-6.54369e-06
-5.94712e-07
-6.61899e-06
-5.58908e-07
-6.68967e-06
-5.21163e-07
-6.75532e-06
-4.81781e-07
-6.81558e-06
-4.41117e-07
-6.8701e-06
-3.99578e-07
-6.9186e-06
-3.57622e-07
-6.9608e-06
-3.15754e-07
-6.9965e-06
-2.74535e-07
-7.02557e-06
-2.34714e-07
-7.04794e-06
-1.97077e-07
-7.06386e-06
-1.62055e-07
-7.07373e-06
-1.30092e-07
-7.07757e-06
-1.01814e-07
-7.07552e-06
-7.79782e-08
-7.06786e-06
-5.93097e-08
-7.05515e-06
-4.65058e-08
-7.03807e-06
-4.02422e-08
-7.0174e-06
-4.11646e-08
-6.99402e-06
-4.98903e-08
-6.96897e-06
-6.69979e-08
-6.94336e-06
-9.29306e-08
-6.9184e-06
-1.27905e-07
-6.89551e-06
-1.72209e-07
-6.87602e-06
-2.26455e-07
-6.86045e-06
-2.90741e-07
-6.84953e-06
-3.65122e-07
-6.8451e-06
-4.49805e-07
-6.84926e-06
-5.44894e-07
-6.86378e-06
-6.50374e-07
-6.8902e-06
-7.66162e-07
-6.92993e-06
-8.92108e-07
-6.98431e-06
-1.02797e-06
-7.0547e-06
-1.1734e-06
-7.14245e-06
-1.32794e-06
-7.24895e-06
-1.49105e-06
-7.37557e-06
-1.66205e-06
-7.52378e-06
-1.84002e-06
-7.6952e-06
-2.02369e-06
-7.89165e-06
-2.21154e-06
-8.11492e-06
-2.40197e-06
-8.3657e-06
-2.59312e-06
-8.64481e-06
-2.78228e-06
-8.96309e-06
-2.97152e-06
-9.31788e-06
-3.13634e-06
-9.85017e-06
-3.34563e-06
-1.1472e-05
-5.26084e-06
-2.01181e-05
-5.80015e-06
-1.39998e-05
-7.08049e-06
-3.245e-06
-7.8899e-06
-1.2319e-06
-8.75602e-06
-2.05692e-06
-9.37083e-06
-1.37114e-06
-9.87438e-06
-1.36956e-06
-1.02293e-05
-9.58466e-07
-1.04622e-05
-7.45749e-07
-4.32363e-07
-2.73049e-08
-3.07546e-06
-5.47947e-08
-3.09791e-06
-8.22859e-08
-3.10433e-06
-1.09763e-07
-3.11129e-06
-1.3722e-07
-3.12013e-06
-1.64652e-07
-3.13164e-06
-1.92055e-07
-3.14639e-06
-2.19423e-07
-3.16461e-06
-2.46751e-07
-3.18625e-06
-2.74011e-07
-3.21117e-06
-3.01154e-07
-3.23924e-06
-3.28195e-07
-3.27028e-06
-3.55216e-07
-3.30411e-06
-3.82211e-07
-3.34066e-06
-4.09148e-07
-3.37996e-06
-4.36002e-07
-3.42205e-06
-4.62748e-07
-3.46695e-06
-4.89361e-07
-3.51469e-06
-5.1581e-07
-3.56526e-06
-5.4206e-07
-3.61866e-06
-5.6807e-07
-3.6749e-06
-5.93793e-07
-3.73395e-06
-6.19177e-07
-3.7958e-06
-6.44164e-07
-3.86044e-06
-6.68691e-07
-3.92782e-06
-6.92686e-07
-3.99792e-06
-7.16074e-07
-4.0707e-06
-7.38771e-07
-4.14612e-06
-7.60688e-07
-4.22412e-06
-7.8173e-07
-4.30463e-06
-8.01793e-07
-4.3876e-06
-8.20768e-07
-4.47293e-06
-8.38538e-07
-4.56053e-06
-8.54983e-07
-4.6503e-06
-8.69973e-07
-4.74211e-06
-8.83374e-07
-4.83583e-06
-8.95047e-07
-4.9313e-06
-9.0485e-07
-5.02837e-06
-9.12637e-07
-5.12683e-06
-9.18261e-07
-5.22648e-06
-9.21575e-07
-5.3271e-06
-9.22432e-07
-5.42843e-06
-9.20693e-07
-5.53021e-06
-9.16222e-07
-5.63214e-06
-9.08894e-07
-5.7339e-06
-8.98596e-07
-5.83515e-06
-8.8523e-07
-5.93553e-06
-8.68718e-07
-6.03466e-06
-8.49005e-07
-6.13212e-06
-8.26064e-07
-6.2275e-06
-7.99899e-07
-6.32035e-06
-7.70549e-07
-6.41022e-06
-7.38094e-07
-6.49663e-06
-7.02658e-07
-6.57913e-06
-6.64414e-07
-6.65724e-06
-6.23586e-07
-6.73049e-06
-5.80454e-07
-6.79845e-06
-5.35354e-07
-6.86068e-06
-4.88681e-07
-6.91678e-06
-4.40889e-07
-6.96639e-06
-3.9249e-07
-7.00919e-06
-3.44051e-07
-7.04494e-06
-2.96186e-07
-7.07343e-06
-2.49581e-07
-7.09455e-06
-2.05188e-07
-7.10825e-06
-1.64021e-07
-7.11489e-06
-1.26573e-07
-7.11502e-06
-9.33076e-08
-7.10879e-06
-6.49105e-08
-7.09626e-06
-4.22611e-08
-7.0778e-06
-2.61747e-08
-7.05416e-06
-1.74564e-08
-7.02612e-06
-1.6849e-08
-6.99462e-06
-2.50529e-08
-6.96076e-06
-4.26979e-08
-6.92571e-06
-7.01964e-08
-6.89091e-06
-1.07955e-07
-6.85775e-06
-1.56599e-07
-6.82737e-06
-2.16569e-07
-6.80048e-06
-2.87888e-07
-6.77822e-06
-3.70642e-07
-6.76235e-06
-4.65035e-07
-6.75486e-06
-5.7124e-07
-6.75758e-06
-6.89332e-07
-6.77211e-06
-8.19285e-07
-6.79997e-06
-9.60973e-07
-6.84262e-06
-1.11416e-06
-6.90151e-06
-1.27851e-06
-6.97811e-06
-1.45358e-06
-7.07388e-06
-1.63882e-06
-7.19033e-06
-1.83354e-06
-7.32906e-06
-2.03668e-06
-7.49207e-06
-2.24681e-06
-7.68152e-06
-2.46236e-06
-7.89937e-06
-2.68149e-06
-8.14657e-06
-2.9018e-06
-8.42451e-06
-3.12021e-06
-8.74468e-06
-3.33592e-06
-9.10217e-06
-3.52659e-06
-9.65951e-06
-3.75301e-06
-1.12456e-05
-5.42185e-06
-1.84493e-05
-6.02828e-06
-1.33933e-05
-7.12477e-06
-2.14851e-06
-7.80413e-06
-5.52541e-07
-8.57181e-06
-1.28923e-06
-9.10583e-06
-8.37118e-07
-9.55389e-06
-9.21497e-07
-9.86687e-06
-6.45488e-07
-1.00784e-05
-5.34233e-07
-3.24883e-07
-3.00995e-08
-3.04536e-06
-6.0405e-08
-3.0676e-06
-9.07177e-08
-3.07402e-06
-1.2102e-07
-3.08099e-06
-1.51307e-07
-3.08984e-06
-1.81569e-07
-3.10138e-06
-2.11798e-07
-3.11616e-06
-2.41979e-07
-3.13443e-06
-2.72074e-07
-3.15616e-06
-3.02031e-07
-3.18122e-06
-3.31875e-07
-3.2094e-06
-3.61711e-07
-3.24045e-06
-3.91564e-07
-3.27426e-06
-4.21392e-07
-3.31083e-06
-4.51165e-07
-3.35018e-06
-4.80854e-07
-3.39236e-06
-5.10434e-07
-3.43737e-06
-5.39874e-07
-3.48525e-06
-5.69142e-07
-3.53599e-06
-5.982e-07
-3.58961e-06
-6.27003e-07
-3.6461e-06
-6.55502e-07
-3.70545e-06
-6.8364e-07
-3.76767e-06
-7.11355e-07
-3.83272e-06
-7.38576e-07
-3.9006e-06
-7.65229e-07
-3.97127e-06
-7.91229e-07
-4.0447e-06
-8.16485e-07
-4.12086e-06
-8.409e-07
-4.1997e-06
-8.64368e-07
-4.28117e-06
-8.86775e-07
-4.36519e-06
-9.08e-07
-4.45171e-06
-9.27914e-07
-4.54062e-06
-9.4638e-07