/*--------------------------------*- C++ -*----------------------------------*\
| =========                 |                                                 |
| \\      /  F ield         | OpenFOAM: The Open Source CFD Toolbox           |
|  \\    /   O peration     | Version:  v2106                                 |
|   \\  /    A nd           | Website:  www.openfoam.com                      |
|    \\/     M anipulation  |                                                 |
\*---------------------------------------------------------------------------*/
FoamFile
{
    version     2.0;
    format      ascii;
    arch        "LSB;label=32;scalar=64";
    class       volVectorField;
    location    "0.9";
    object      U;
}
// * * * * * * * * * * * * * * * * * * * * * * * * * * * * * * * * * * * * * //

dimensions      [0 1 -1 0 0 0 0];

internalField   nonuniform List<vector> 
29678
(
(-0.0268949 5.85675e-24 -1.81399e-05)
(-0.0270892 5.03362e-23 -5.65868e-05)
(-0.0271389 -7.83597e-23 -9.64721e-05)
(-0.0271934 1.12508e-20 -0.000134715)
(-0.0272659 1.33938e-19 -0.000172244)
(-0.0273621 1.42834e-19 -0.000209722)
(-0.0274853 1.53833e-19 -0.000247499)
(-0.0276369 1.53101e-19 -0.000285623)
(-0.0278163 -2.86153e-19 -0.000324012)
(-0.0280219 1.14092e-19 -0.000362562)
(-0.0282525 -2.85512e-19 -0.000401188)
(-0.0285069 1.32028e-19 -0.000439836)
(-0.0287844 -2.68186e-19 -0.000478466)
(-0.0290845 1.24168e-19 -0.000517042)
(-0.0294067 -2.88667e-19 -0.000555531)
(-0.0297506 1.22863e-19 -0.000593911)
(-0.0301162 -3.14026e-19 -0.000632024)
(-0.0305039 -3.1976e-19 -0.000669356)
(-0.0309138 1.42798e-19 -0.000705346)
(-0.031346 -3.16675e-19 -0.000739053)
(-0.0318006 -3.40591e-19 -0.000770854)
(-0.0322774 -3.26792e-19 -0.00080077)
(-0.0327759 -1.74547e-20 -0.000829016)
(-0.0332956 -4.76278e-20 -0.000855915)
(-0.0338355 -1.33399e-19 -0.000881569)
(-0.0343949 -8.04222e-20 -0.00090622)
(-0.0349737 -5.14117e-20 -0.000930057)
(-0.0355713 1.8068e-19 -0.000953271)
(-0.0361866 -3.19347e-19 -0.000976006)
(-0.0368187 -3.62634e-19 -0.000998288)
(-0.0374668 -3.67124e-19 -0.00102009)
(-0.0381296 -1.975e-20 -0.00104136)
(-0.0388063 -3.55908e-20 -0.00106203)
(-0.0394955 1.24918e-19 -0.00108203)
(-0.0401962 2.07531e-19 -0.00110126)
(-0.0409068 1.71526e-19 -0.00111961)
(-0.041626 2.29622e-19 -0.001137)
(-0.0423522 1.90431e-19 -0.00115329)
(-0.0430837 1.7091e-19 -0.00116837)
(-0.0438188 2.27663e-19 -0.0011821)
(-0.0445557 1.80708e-19 -0.00119437)
(-0.0452924 2.58902e-19 -0.00120502)
(-0.0460269 1.82121e-19 -0.00121392)
(-0.046757 2.30562e-19 -0.00122093)
(-0.0474807 1.87814e-19 -0.0012259)
(-0.0481956 -2.76763e-19 -0.0012287)
(-0.0488995 2.2421e-19 -0.0012292)
(-0.0495901 2.07089e-19 -0.00122726)
(-0.0502651 3.09949e-19 -0.00122279)
(-0.0509223 2.22389e-19 -0.00121571)
(-0.0515594 2.82896e-19 -0.00120597)
(-0.0521745 2.68526e-19 -0.00119362)
(-0.0527654 3.15268e-19 -0.00117878)
(-0.0533296 2.24583e-19 -0.00116152)
(-0.0538655 1.82308e-20 -0.00114209)
(-0.0543719 3.09154e-19 -0.0011205)
(-0.0548473 2.71101e-19 -0.00109687)
(-0.0552902 3.17495e-19 -0.00107148)
(-0.0556992 3.10142e-19 -0.00104393)
(-0.0560736 3.19647e-19 -0.00101426)
(-0.0564129 3.00665e-19 -0.000982677)
(-0.0567173 3.17194e-19 -0.000949396)
(-0.0569877 2.95241e-19 -0.000914719)
(-0.0572258 3.25607e-19 -0.000878971)
(-0.0574334 3.22293e-19 -0.000842508)
(-0.0576125 3.22494e-19 -0.000805717)
(-0.0577654 3.1217e-20 -0.000768983)
(-0.0578952 2.74078e-19 -0.000732726)
(-0.0580055 -5.79524e-19 -0.000697401)
(-0.0581009 2.63362e-19 -0.000663508)
(-0.0581865 -2.80246e-19 -0.000631643)
(-0.0582678 2.39842e-19 -0.000602584)
(-0.0583514 -2.73109e-19 -0.000577245)
(-0.0584445 2.6471e-19 -0.000556588)
(-0.0585546 -2.98482e-19 -0.000541486)
(-0.0586889 -3.52826e-19 -0.00053262)
(-0.0588545 2.55046e-19 -0.00053044)
(-0.0590584 -2.81331e-19 -0.000534994)
(-0.0593065 2.61131e-19 -0.000545889)
(-0.0596047 -6.31611e-19 -0.000564718)
(-0.05997 2.36079e-19 -0.000589103)
(-0.060415 -2.1072e-19 -0.000616102)
(-0.0609463 1.93565e-19 -0.000648105)
(-0.0615769 -3.50398e-19 -0.000685244)
(-0.0623129 -2.38281e-19 -0.000730108)
(-0.0631586 2.04447e-19 -0.000783984)
(-0.0641199 -3.64183e-19 -0.000846396)
(-0.065203 1.89382e-19 -0.000916393)
(-0.0664136 -2.19932e-19 -0.000992486)
(-0.0677571 1.93349e-19 -0.00107253)
(-0.0692376 -6.4168e-19 -0.00115353)
(-0.0708569 -2.44766e-20 -0.00123113)
(-0.0726132 1.82886e-19 -0.00129963)
(-0.0744994 -6.16281e-19 -0.00134681)
(-0.0765025 1.83088e-19 -0.00137171)
(-0.078638 -6.93872e-19 -0.00131385)
(-0.0808512 1.87028e-19 -0.00125883)
(-0.0834482 -4.65654e-19 -0.000910506)
(-0.0865741 2.54934e-19 -0.000720673)
(-0.133464 -7.81915e-20 0.000265059)
(-0.554289 -9.6767e-20 -0.0152719)
(-0.204299 -1.06004e-19 -0.150517)
(-0.166172 -1.95323e-19 -0.1013)
(-0.0919548 6.03878e-20 -0.16875)
(-0.0879099 -3.15962e-19 -0.134448)
(-0.0637626 -1.92904e-19 -0.161909)
(-0.0527943 -8.23347e-20 -0.153772)
(-0.0241378 3.9206e-19 -0.161129)
(-0.00800348 2.77087e-20 -0.153336)
(0.00169115 -3.7127e-19 -0.146117)
(-0.0268336 1.62897e-23 -2.51342e-05)
(-0.0270265 3.02671e-22 -7.56993e-05)
(-0.0270771 5.53972e-21 -0.000126688)
(-0.027133 1.22716e-19 -0.000176375)
(-0.0272059 5.39623e-21 -0.000225901)
(-0.0273018 2.03482e-22 -0.00027571)
(-0.0274245 3.44266e-21 -0.000325927)
(-0.0275756 1.35063e-19 -0.000376444)
(-0.0277546 -1.26945e-19 -0.000427102)
(-0.0279602 -1.20456e-20 -0.000477768)
(-0.0281907 -1.30024e-19 -0.000528358)
(-0.0284452 1.31302e-19 -0.00057881)
(-0.0287228 -1.17286e-19 -0.000629059)
(-0.029023 -1.27726e-20 -0.000679019)
(-0.0293454 -1.35984e-19 -0.000728623)
(-0.0296899 1.23353e-19 -0.000777922)
(-0.0300572 -1.46406e-19 -0.000826109)
(-0.0304474 -1.34824e-19 -0.000872146)
(-0.0308596 2.70814e-19 -0.000916027)
(-0.031294 -1.58839e-19 -0.000957661)
(-0.0317514 -1.8173e-19 -0.000997484)
(-0.0322308 -1.7845e-19 -0.0010357)
(-0.0327316 -6.07382e-21 -0.00107257)
(-0.0332533 -2.02884e-19 -0.00110838)
(-0.033795 -2.00169e-20 -0.0011432)
(-0.0343562 -3.44257e-19 -0.00117765)
(-0.0349362 2.52148e-19 -0.00121166)
(-0.0355347 3.48525e-19 -0.00124516)
(-0.0361508 -2.40766e-19 -0.00127812)
(-0.0367837 -2.35904e-19 -0.00131041)
(-0.0374326 -2.32274e-19 -0.00134186)
(-0.0380964 -1.47328e-20 -0.0013723)
(-0.0387742 -3.95081e-19 -0.00140153)
(-0.0394648 -2.00314e-20 -0.00142937)
(-0.0401669 2.26814e-19 -0.00145561)
(-0.0408791 6.62532e-21 -0.00148004)
(-0.0416001 8.07367e-20 -0.00150245)
(-0.0423284 4.618e-21 -0.00152262)
(-0.0430622 -1.25736e-20 -0.00154033)
(-0.0437998 7.34203e-20 -0.00155536)
(-0.0445393 7.74235e-21 -0.00156748)
(-0.0452789 2.82816e-19 -0.00157646)
(-0.0460166 4.31594e-21 -0.0015821)
(-0.0467501 7.66699e-20 -0.00158418)
(-0.0474773 -2.68888e-20 -0.0015825)
(-0.048196 -5.30045e-19 -0.00157689)
(-0.0489039 8.398e-20 -0.0015672)
(-0.0495986 9.8628e-21 -0.0015533)
(-0.0502779 3.4332e-19 -0.00153512)
(-0.0509393 8.70453e-21 -0.00151262)
(-0.0515808 1.21615e-19 -0.00148584)
(-0.0521999 3.05595e-19 -0.00145494)
(-0.0527946 3.47978e-19 -0.0014202)
(-0.0533626 -1.95564e-19 -0.00138182)
(-0.0539022 -1.32925e-22 -0.00134069)
(-0.0544118 3.14987e-19 -0.00129698)
(-0.0548902 -2.04683e-19 -0.00125106)
(-0.0553353 6.78451e-20 -0.00120345)
(-0.055746 6.88691e-21 -0.00115413)
(-0.0561228 2.60359e-19 -0.00110305)
(-0.0564651 5.41359e-21 -0.00105011)
(-0.0567721 1.15641e-20 -0.0009954)
(-0.0570445 -3.50847e-22 -0.000939904)
(-0.0572839 -1.0397e-20 -0.000884439)
(-0.0574921 1.53806e-20 -0.000829874)
(-0.057671 2.68339e-19 -0.000777116)
(-0.057823 1.34033e-20 -0.000727059)
(-0.0579511 -3.1471e-20 -0.000680612)
(-0.058059 -5.48305e-19 -0.000638673)
(-0.0581509 -2.73817e-20 -0.000602123)
(-0.0582319 2.71152e-21 -0.000571891)
(-0.0583074 -2.6556e-20 -0.00054903)
(-0.0583836 -5.23318e-19 -0.000534702)
(-0.0584678 -3.2636e-20 -0.000530087)
(-0.0585678 -2.38059e-20 -0.000536287)
(-0.058691 -5.80015e-19 -0.000554198)
(-0.0588452 -3.2936e-20 -0.000584459)
(-0.0590377 3.58393e-21 -0.000627241)
(-0.0592751 -3.04866e-20 -0.000682916)
(-0.059562 -5.57128e-19 -0.00075369)
(-0.059915 -3.19254e-20 -0.000833289)
(-0.06035 6.11259e-21 -0.000926779)
(-0.0608732 -3.35117e-20 -0.00103869)
(-0.0614897 -6.59141e-19 -0.00116894)
(-0.0622085 -9.10185e-21 -0.00131796)
(-0.0630371 -3.76737e-20 -0.00148619)
(-0.0639826 -6.66075e-19 -0.00167205)
(-0.0650519 -5.42427e-20 -0.0018736)
(-0.0662516 1.96532e-20 -0.00208838)
(-0.0675884 -5.05937e-20 -0.00231328)
(-0.0690682 -7.11848e-19 -0.00254424)
(-0.0706954 -7.52103e-21 -0.00277561)
(-0.0724723 -6.61142e-20 -0.00300039)
(-0.0743981 -6.29208e-19 -0.00320082)
(-0.0764707 -8.40587e-20 -0.00338553)
(-0.0787136 -6.65915e-19 -0.00344057)
(-0.0811086 -8.55003e-20 -0.00354492)
(-0.084065 -7.11017e-19 -0.0031318)
(-0.0876018 -5.43041e-20 -0.00251675)
(-0.121071 7.77874e-20 -0.00148838)
(-0.419131 8.14385e-20 -0.0204359)
(-0.152136 -5.08933e-20 -0.155191)
(-0.130843 -1.87694e-19 -0.0843246)
(-0.0855274 -9.52136e-20 -0.153288)
(-0.079243 -7.48405e-20 -0.118312)
(-0.0578714 -6.46942e-20 -0.147159)
(-0.0458223 9.70896e-24 -0.139913)
(-0.0295836 2.69295e-21 -0.148231)
(-0.0175523 -4.38203e-19 -0.142701)
(-0.0073237 1.4171e-19 -0.137439)
(-0.0267747 -6.84793e-24 -3.45637e-05)
(-0.0269687 -6.81575e-23 -0.000103664)
(-0.0270203 -7.98499e-22 -0.000172809)
(-0.0270767 -1.06931e-20 -0.000240385)
(-0.0271495 -1.18904e-19 -0.000308014)
(-0.0272451 -1.27735e-19 -0.000376032)
(-0.0273676 -1.39278e-19 -0.000444474)
(-0.0275185 -1.23879e-19 -0.000513158)
(-0.0276976 2.63676e-19 -0.000581902)
(-0.0279032 -1.06302e-19 -0.000650564)
(-0.028134 2.62079e-19 -0.000719043)
(-0.0283887 -1.00115e-19 -0.000787251)
(-0.0286667 2.51442e-19 -0.000855069)
(-0.0289674 -1.15263e-19 -0.000922331)
(-0.0292907 2.51865e-19 -0.000989196)
(-0.0296363 -1.15136e-19 -0.00105487)
(-0.0300042 2.74712e-19 -0.00111847)
(-0.0303953 2.86026e-19 -0.00118059)
(-0.0308101 -1.08804e-19 -0.00124154)
(-0.0312471 2.94221e-19 -0.0013022)
(-0.0317061 3.24338e-19 -0.00136222)
(-0.0321865 3.12378e-19 -0.00142175)
(-0.0326881 1.24832e-20 -0.00148077)
(-0.0332103 -2.01812e-20 -0.00153923)
(-0.0337524 1.64495e-19 -0.00159692)
(-0.0343139 2.26889e-20 -0.00165354)
(-0.0348944 2.28157e-19 -0.00170884)
(-0.0354935 -1.42424e-19 -0.00176273)
(-0.0361104 3.14251e-19 -0.00181511)
(-0.0367444 3.71749e-19 -0.00186582)
(-0.0373947 3.69872e-19 -0.00191465)
(-0.0380601 3.79599e-21 -0.00196138)
(-0.0387397 -8.06921e-20 -0.00200573)
(-0.0394323 -1.79935e-19 -0.00204742)
(-0.0401367 -1.78824e-19 -0.00208617)
(-0.0408516 -2.30032e-19 -0.00212166)
(-0.0415754 -1.75047e-19 -0.00215358)
(-0.0423068 -2.25339e-19 -0.0021816)
(-0.043044 -2.43449e-19 -0.00220538)
(-0.0437853 -1.73841e-19 -0.00222459)
(-0.0445289 -2.24194e-19 -0.00223891)
(-0.0452727 -1.96075e-19 -0.00224799)
(-0.0460148 -2.49626e-19 -0.00225153)
(-0.0467531 -2.00556e-19 -0.00224924)
(-0.0474853 -2.37009e-19 -0.00224082)
(-0.0482091 1.69736e-19 -0.00222604)
(-0.0489223 -1.55593e-19 -0.0022047)
(-0.0496225 -2.55175e-19 -0.00217662)
(-0.0503073 -2.44932e-19 -0.00214172)
(-0.0509742 -3.00208e-19 -0.00209996)
(-0.051621 -2.25156e-19 -0.00205138)
(-0.0522453 -2.25815e-19 -0.00199614)
(-0.0528448 -2.34902e-19 -0.00193443)
(-0.053417 -3.06916e-19 -0.00186645)
(-0.0539602 -1.3402e-20 -0.00179243)
(-0.0544728 -2.38905e-19 -0.00171292)
(-0.0549535 -3.27943e-19 -0.00162883)
(-0.055401 -2.39482e-19 -0.00154103)
(-0.0558146 -3.15033e-19 -0.00145134)
(-0.0561932 -2.61563e-19 -0.00136088)
(-0.0565356 -2.75164e-19 -0.00127038)
(-0.0568423 -2.74734e-19 -0.00117989)
(-0.0571139 -2.48566e-19 -0.00108971)
(-0.0573516 -2.9967e-19 -0.00100149)
(-0.057557 -2.77147e-19 -0.000916647)
(-0.0577318 -2.76812e-19 -0.000836657)
(-0.0578787 -2.08719e-20 -0.000763026)
(-0.0580005 -2.50067e-19 -0.000697268)
(-0.0581009 4.85862e-19 -0.00064087)
(-0.0581843 -2.41902e-19 -0.000595274)
(-0.0582555 2.53447e-19 -0.00056192)
(-0.0583201 -2.14438e-19 -0.000542264)
(-0.0583841 2.36738e-19 -0.000537779)
(-0.0584548 -2.43418e-19 -0.000549878)
(-0.0585402 2.62953e-19 -0.000579917)
(-0.0586481 2.78668e-19 -0.000629122)
(-0.0587861 -2.32499e-19 -0.000698542)
(-0.058962 2.54281e-19 -0.000789023)
(-0.0591819 -2.40953e-19 -0.000903029)
(-0.059449 5.40186e-19 -0.00103922)
(-0.0597839 -2.63677e-19 -0.00119917)
(-0.0602005 2.72102e-19 -0.00139235)
(-0.0606994 -2.74383e-19 -0.00160941)
(-0.0612914 2.79529e-19 -0.00185259)
(-0.0619868 2.96599e-19 -0.00212213)
(-0.0627935 -2.73561e-19 -0.00241748)
(-0.0637192 2.69391e-19 -0.00273682)
(-0.0647711 -2.38022e-19 -0.00307772)
(-0.0659566 2.64497e-19 -0.00343724)
(-0.067283 -2.4792e-19 -0.00381191)
(-0.0687572 5.39859e-19 -0.00419745)
(-0.0703855 2.8169e-20 -0.00458834)
(-0.0721727 -2.26219e-19 -0.00497833)
(-0.0741226 5.87754e-19 -0.00534922)
(-0.0762402 -2.2436e-19 -0.00572743)
(-0.0785582 5.98323e-19 -0.00594912)
(-0.0810901 -2.40882e-19 -0.00641734)
(-0.0843681 3.80836e-19 -0.00606682)
(-0.0880517 -2.848e-20 -0.00684884)
(-0.114588 1.84805e-19 -0.00560968)
(-0.360816 4.16194e-19 -0.0203037)
(-0.151965 2.73419e-19 -0.1103)
(-0.125179 1.10073e-19 -0.0602508)
(-0.0764697 -3.6433e-20 -0.126422)
(-0.0734595 2.10441e-19 -0.10223)
(-0.0531423 1.91611e-20 -0.130619)
(-0.0422223 -5.5379e-20 -0.124223)
(-0.0275678 -2.17053e-19 -0.133226)
(-0.01628 1.54349e-19 -0.130897)
(-0.00672093 2.47616e-19 -0.130371)
(-0.026695 -2.73718e-23 -4.51176e-05)
(-0.0268895 -4.93466e-22 -0.000135608)
(-0.0269421 -9.62146e-21 -0.000226309)
(-0.0269988 -1.18119e-19 -0.000314977)
(-0.0270715 1.30753e-19 -0.000403664)
(-0.0271669 1.30114e-19 -0.000492709)
(-0.0272892 1.24182e-19 -0.000582136)
(-0.0274401 -1.24072e-21 -0.000671743)
(-0.0276191 -1.20905e-19 -0.000761358)
(-0.0278249 1.17462e-19 -0.000850843)
(-0.0280559 -1.25647e-19 -0.00094009)
(-0.028311 -1.40597e-20 -0.00102899)
(-0.0285895 -1.26011e-19 -0.00111738)
(-0.0288911 1.31908e-19 -0.0012053)
(-0.0292149 -1.338e-19 -0.0012927)
(-0.0295613 -1.49736e-20 -0.00137829)
(-0.029931 -1.24311e-19 -0.00146335)
(-0.0303239 -1.56487e-19 -0.00154854)
(-0.0307391 -1.74515e-19 -0.00163311)
(-0.0311762 -1.28371e-19 -0.00171707)
(-0.0316353 -1.43231e-19 -0.00180033)
(-0.0321161 -1.50297e-19 -0.0018829)
(-0.0326181 1.191e-21 -0.00196469)
(-0.0331411 1.48243e-19 -0.00204555)
(-0.0336842 -1.32705e-19 -0.00212524)
(-0.0342472 3.01412e-19 -0.00220343)
(-0.0348294 -3.27711e-19 -0.00227982)
(-0.0354303 -1.58426e-19 -0.00235413)
(-0.0360493 -1.2597e-19 -0.00242612)
(-0.0366856 -1.96687e-19 -0.00249553)
(-0.0373383 -1.74797e-19 -0.00256205)
(-0.0380066 1.22574e-20 -0.00262535)
(-0.0386893 3.99189e-19 -0.0026851)
(-0.0393854 1.50044e-19 -0.00274091)
(-0.0400936 7.20166e-21 -0.0027924)
(-0.0408127 1.8476e-19 -0.00283915)
(-0.0415411 2.21391e-19 -0.00288075)
(-0.0422774 2.14916e-19 -0.00291678)
(-0.04302 1.82066e-19 -0.00294678)
(-0.043767 2.2961e-19 -0.00297033)
(-0.0445166 2.02252e-19 -0.00298699)
(-0.045267 8.97791e-21 -0.00299634)
(-0.0460159 2.14286e-19 -0.00299796)
(-0.0467613 2.2581e-19 -0.00299147)
(-0.0475009 2.47722e-19 -0.00297653)
(-0.0482325 2.51607e-19 -0.00295281)
(-0.0489536 2.31347e-19 -0.00292006)
(-0.0496618 2.14054e-19 -0.00287809)
(-0.0503546 8.94257e-21 -0.00282676)
(-0.0510297 2.2993e-19 -0.00276605)
(-0.0516845 2.44837e-19 -0.00269602)
(-0.0523165 1.37022e-22 -0.00261682)
(-0.0529235 2.62525e-20 -0.00252873)
(-0.0535031 4.78988e-19 -0.00243209)
(-0.0540532 5.85625e-21 -0.00232735)
(-0.054572 1.51467e-20 -0.00221519)
(-0.0550578 5.456e-19 -0.00209648)
(-0.0555091 3.00259e-19 -0.00197221)
(-0.0559247 2.46279e-19 -0.00184355)
(-0.0563042 1.22704e-20 -0.00171174)
(-0.0566472 2.65598e-19 -0.0015789)
(-0.0569532 2.78696e-19 -0.00144756)
(-0.0572224 2.90717e-19 -0.00131795)
(-0.0574562 2.71775e-19 -0.0011918)
(-0.057656 2.64535e-19 -0.00107132)
(-0.0578235 6.90479e-21 -0.000958592)
(-0.0579611 1.69955e-20 -0.000855736)
(-0.0580718 2.77959e-19 -0.000764915)
(-0.0581595 4.82564e-20 -0.000688286)
(-0.0582283 2.58953e-19 -0.000627973)
(-0.0582833 -2.50982e-19 -0.000586081)
(-0.0583299 2.87869e-19 -0.000564647)
(-0.0583744 3.18118e-19 -0.0005656)
(-0.0584242 2.77743e-19 -0.000590713)
(-0.0584871 -2.4761e-19 -0.000641652)
(-0.0585712 3.05623e-19 -0.000720014)
(-0.0586841 2.71783e-19 -0.000827305)
(-0.0588337 -2.51831e-19 -0.00096528)
(-0.059025 2.87858e-19 -0.00113683)
(-0.0592633 5.0823e-20 -0.0013382)
(-0.0595654 2.54941e-19 -0.00157728)
(-0.0599494 -2.46434e-19 -0.00185411)
(-0.060418 2.79821e-19 -0.00216497)
(-0.06098 3.08773e-19 -0.00251081)
(-0.0616457 -2.53989e-19 -0.00289105)
(-0.0624243 2.86757e-19 -0.00330448)
(-0.0633241 3.22824e-19 -0.00374903)
(-0.0643529 2.58675e-19 -0.00422209)
(-0.0655185 -2.50265e-19 -0.0047206)
(-0.0668288 2.9233e-19 -0.00524103)
(-0.0682915 8.25364e-20 -0.00577926)
(-0.069914 1.25995e-21 -0.00633022)
(-0.0717029 3.02998e-19 -0.00688853)
(-0.0736644 8.80158e-20 -0.00743736)
(-0.0758055 3.00912e-19 -0.00801632)
(-0.0781553 7.17311e-20 -0.00841974)
(-0.080747 3.40358e-19 -0.00925791)
(-0.0840532 3.45002e-19 -0.0089648)
(-0.0877008 2.64445e-19 -0.0108818)
(-0.108675 2.46339e-20 -0.0089621)
(-0.310216 2.83246e-19 -0.0206787)
(-0.138465 -3.31087e-19 -0.0930303)
(-0.101821 -1.08218e-19 -0.0510904)
(-0.0633002 1.27014e-19 -0.110259)
(-0.0639205 -9.32392e-21 -0.089962)
(-0.0462485 -1.73369e-19 -0.116979)
(-0.0375719 -1.39452e-19 -0.111779)
(-0.0259731 3.61165e-19 -0.121223)
(-0.016914 1.20127e-19 -0.12011)
(-0.00838582 -2.59247e-19 -0.120737)
(-0.0265936 -1.48896e-23 -5.60945e-05)
(-0.0267881 -2.42522e-22 -0.000168928)
(-0.0268414 -4.10859e-21 -0.000282527)
(-0.0268985 -5.66681e-21 -0.000393774)
(-0.0269713 1.0797e-20 -0.00050499)
(-0.0270666 7.49824e-21 -0.00061649)
(-0.0271887 2.13353e-21 -0.000728288)
(-0.0273395 -1.933e-21 -0.000840179)
(-0.0275187 1.07969e-21 -0.000952015)
(-0.0277247 4.79389e-21 -0.00106368)
(-0.027956 -2.09099e-20 -0.00117508)
(-0.0282115 -8.07768e-21 -0.0012861)
(-0.0284906 8.1509e-21 -0.00139666)
(-0.0287927 4.34341e-21 -0.00150712)
(-0.0291171 -1.01027e-20 -0.00161623)
(-0.0294644 2.11584e-20 -0.00172472)
(-0.0298347 -5.51876e-21 -0.00183351)
(-0.0302277 3.13763e-21 -0.00194167)
(-0.0306432 -1.06147e-20 -0.0020492)
(-0.031081 -8.13547e-21 -0.00215601)
(-0.0315409 -3.63009e-21 -0.00226194)
(-0.0320226 8.23196e-21 -0.00236684)
(-0.0325257 2.60013e-20 -0.00247052)
(-0.0330499 -3.65265e-21 -0.00257276)
(-0.0335947 -5.54722e-21 -0.0026733)
(-0.0341596 -1.10072e-21 -0.00277181)
(-0.0347441 -5.0803e-20 -0.00286794)
(-0.0353476 3.3844e-20 -0.00296136)
(-0.0359694 -2.83693e-20 -0.00305172)
(-0.0366089 -2.68602e-21 -0.00313867)
(-0.0372652 -1.51154e-21 -0.00322182)
(-0.0379374 3.30733e-20 -0.00330075)
(-0.0386245 4.78385e-20 -0.00337502)
(-0.0393253 -9.34599e-21 -0.00344416)
(-0.0400388 1.08202e-20 -0.00350768)
(-0.0407635 8.31035e-21 -0.00356506)
(-0.0414981 -8.2414e-21 -0.00361578)
(-0.0422411 1.2419e-20 -0.00365931)
(-0.0429908 -9.50034e-21 -0.00369509)
(-0.0437454 1.34648e-20 -0.00372258)
(-0.0445031 8.07291e-21 -0.00374124)
(-0.045262 -6.66307e-21 -0.00375054)
(-0.04602 7.55059e-21 -0.00374997)
(-0.0467748 1.22909e-22 -0.00373905)
(-0.0475242 1.53249e-20 -0.00371734)
(-0.0482659 -6.66201e-21 -0.00368446)
(-0.0489973 -7.90862e-21 -0.00364009)
(-0.0497161 9.41455e-21 -0.00358398)
(-0.0504196 1.50609e-20 -0.00351599)
(-0.0511053 1.00915e-20 -0.00343607)
(-0.0517705 1.93517e-20 -0.0033443)
(-0.0524128 4.13485e-21 -0.00324089)
(-0.0530297 1.29968e-20 -0.00312618)
(-0.0536186 1.97701e-20 -0.00300066)
(-0.0541775 -3.40402e-20 -0.00286499)
(-0.0547042 3.11903e-20 -0.00272004)
(-0.0551968 2.232e-20 -0.00256689)
(-0.0556537 3.93877e-20 -0.00240682)
(-0.0560736 1.2848e-20 -0.0022413)
(-0.0564555 5.55026e-21 -0.00207202)
(-0.0567989 1.1482e-20 -0.00190058)
(-0.0571033 1.46588e-20 -0.00172982)
(-0.0573694 3.65188e-21 -0.00156217)
(-0.0575979 2.03323e-21 -0.00139867)
(-0.0577899 -1.61813e-20 -0.00124235)
(-0.0579472 -4.09989e-21 -0.00109601)
(-0.0580722 6.55451e-21 -0.00096245)
(-0.0581678 9.24204e-21 -0.000844514)
(-0.0582377 3.30688e-20 -0.000745081)
(-0.0582864 1.18326e-20 -0.000667024)
(-0.0583187 -1.07772e-20 -0.000613189)
(-0.0583404 1.85722e-20 -0.000586313)
(-0.0583579 5.98766e-20 -0.000588935)
(-0.0583787 1.15382e-20 -0.000623382)
(-0.0584109 -9.83347e-21 -0.000691776)
(-0.0584624 3.69378e-20 -0.000796144)
(-0.058541 6.99908e-21 -0.000938401)
(-0.0586545 -6.21291e-21 -0.00112113)
(-0.058808 1.04456e-20 -0.0013461)
(-0.0590084 -2.63246e-20 -0.00160914)
(-0.0592705 9.10126e-21 -0.00191781)
(-0.0596138 -8.36717e-21 -0.00227282)
(-0.0600426 2.55341e-20 -0.00267249)
(-0.0605657 -9.95768e-21 -0.00311683)
(-0.0611934 5.92655e-21 -0.00360463)
(-0.0619359 3.1156e-20 -0.00413421)
(-0.0628019 2.49492e-20 -0.00470338)
(-0.0637998 -1.25082e-20 -0.0053095)
(-0.0649378 -5.09476e-21 -0.00594953)
(-0.0662242 9.37392e-21 -0.00661993)
(-0.0676674 1.28431e-20 -0.00731657)
(-0.0692757 5.67234e-20 -0.0080346)
(-0.0710566 -1.39313e-20 -0.00876884)
(-0.0730178 -2.90174e-21 -0.00950412)
(-0.0751657 1.21667e-20 -0.0102846)
(-0.0775204 3.75227e-20 -0.0108806)
(-0.0801338 4.95065e-20 -0.0120409)
(-0.08336 1.11117e-20 -0.011819)
(-0.0870724 9.53971e-21 -0.0145921)
(-0.104927 7.41942e-20 -0.0120442)
(-0.270174 1.934e-19 -0.0215823)
(-0.134476 -1.96526e-19 -0.0791624)
(-0.0866971 -6.01355e-20 -0.0446324)
(-0.0512419 -3.57476e-20 -0.0963848)
(-0.0547309 1.12329e-19 -0.0804711)
(-0.03919 -6.96706e-20 -0.105413)
(-0.0325918 4.78463e-20 -0.101415)
(-0.0227363 9.32364e-20 -0.110849)
(-0.0151156 -3.66906e-19 -0.110598)
(-0.00763935 1.05073e-19 -0.112408)
(-0.0264699 -1.49812e-23 -6.73414e-05)
(-0.0266639 -2.70249e-22 -0.000202982)
(-0.0267177 -5.20837e-21 -0.000339956)
(-0.0267752 -6.36998e-21 -0.000474325)
(-0.0268481 -7.81903e-21 -0.000608662)
(-0.0269434 1.13528e-20 -0.000743241)
(-0.0270655 -7.30987e-21 -0.000878052)
(-0.0272164 9.42306e-21 -0.00101287)
(-0.0273956 1.39367e-19 -0.00114757)
(-0.0276019 1.16227e-20 -0.00128206)
(-0.0278335 1.22421e-19 -0.00141626)
(-0.0280894 1.28292e-20 -0.00155009)
(-0.028369 1.48206e-19 -0.00168375)
(-0.0286714 -5.55257e-21 -0.0018169)
(-0.0289965 1.32278e-19 -0.0019486)
(-0.0293443 1.38689e-20 -0.00208067)
(-0.029715 1.69672e-19 -0.00221223)
(-0.0301085 1.2012e-19 -0.00234302)
(-0.0305247 -1.31701e-19 -0.00247304)
(-0.0309634 1.67954e-19 -0.00260215)
(-0.0314244 1.5588e-19 -0.00273016)
(-0.0319074 1.40115e-19 -0.00285683)
(-0.0324121 1.32394e-20 -0.00298193)
(-0.0329381 1.33435e-19 -0.00310517)
(-0.033485 1.23586e-20 -0.00322625)
(-0.0340524 1.25596e-19 -0.00334479)
(-0.0346397 -5.69046e-21 -0.00346042)
(-0.0352464 -1.08464e-19 -0.00357272)
(-0.0358719 1.78675e-19 -0.00368127)
(-0.0365154 2.07118e-19 -0.00378563)
(-0.0371762 1.54858e-19 -0.00388532)
(-0.0378533 1.51973e-20 -0.00397983)
(-0.0385458 1.39198e-19 -0.00406863)
(-0.0392527 -1.14277e-20 -0.00415115)
(-0.0399727 2.80925e-20 -0.00422679)
(-0.0407045 -2.36979e-21 -0.00429493)
(-0.0414468 1.96105e-20 -0.00435494)
(-0.0421981 -1.73373e-19 -0.00440616)
(-0.0429567 -2.84345e-20 -0.00444794)
(-0.0437208 3.01709e-20 -0.0044796)
(-0.0444887 -6.76093e-21 -0.0045005)
(-0.0452582 3.46699e-20 -0.00450999)
(-0.0460274 -3.31544e-20 -0.00450745)
(-0.0467939 3.85179e-20 -0.00449228)
(-0.0475555 6.9406e-20 -0.00446397)
(-0.0483098 1.70135e-19 -0.00442203)
(-0.0490541 2.35081e-20 -0.00436607)
(-0.0497859 1.14694e-20 -0.0042958)
(-0.0505026 4.19604e-20 -0.004211)
(-0.0512015 4.82988e-21 -0.00411164)
(-0.0518798 2.5054e-20 -0.00399777)
(-0.0525348 4.97572e-20 -0.00386965)
(-0.0531639 6.45535e-20 -0.00372769)
(-0.0537645 2.27647e-22 -0.0035725)
(-0.0543341 -2.57793e-19 -0.00340489)
(-0.0548704 3.37889e-20 -0.00322593)
(-0.0553714 -4.93562e-20 -0.00303692)
(-0.0558351 4.02397e-20 -0.00283942)
(-0.05626 1.20141e-21 -0.00263527)
(-0.0566449 4.04402e-20 -0.00242658)
(-0.056989 -3.97137e-20 -0.00221563)
(-0.0572918 2.62272e-20 -0.00200484)
(-0.0575539 -2.62646e-19 -0.00179825)
(-0.0577758 -8.78485e-21 -0.00159731)
(-0.0579585 3.38518e-20 -0.00140451)
(-0.0581034 5.09505e-20 -0.00122359)
(-0.0582127 1.24154e-20 -0.00105803)
(-0.0582893 1.34171e-20 -0.000911397)
(-0.0583371 2.62449e-19 -0.000787274)
(-0.0583603 7.49477e-21 -0.000689283)
(-0.0583642 -1.36279e-20 -0.000621012)
(-0.0583543 9.56062e-21 -0.000585916)
(-0.0583375 2.62347e-19 -0.000587215)
(-0.0583215 1.21614e-20 -0.000627911)
(-0.0583145 2.69027e-20 -0.000710755)
(-0.0583246 2.65222e-19 -0.000838283)
(-0.0583597 1.23576e-21 -0.00101281)
(-0.0584278 1.45768e-20 -0.00123774)
(-0.0585351 -5.2085e-21 -0.00151211)
(-0.05869 2.86527e-19 -0.00183332)
(-0.0589035 -3.58821e-20 -0.00221006)
(-0.0591956 4.2647e-20 -0.00264238)
(-0.0595743 -2.01737e-20 -0.00313)
(-0.0600486 2.43266e-19 -0.00367235)
(-0.0606292 1.86172e-20 -0.00426777)
(-0.0613265 1.64258e-20 -0.00491445)
(-0.0621497 2.39415e-19 -0.00561028)
(-0.0631076 -5.33413e-20 -0.00635276)
(-0.0642088 3.16462e-20 -0.00713883)
(-0.0654623 8.76248e-21 -0.00796481)
(-0.0668772 2.61587e-19 -0.00882636)
(-0.0684623 -1.13539e-20 -0.00971853)
(-0.0702261 2.4471e-21 -0.0106357)
(-0.072177 2.4316e-19 -0.011564)
(-0.0743203 -5.92417e-21 -0.0125449)
(-0.0766677 2.46905e-19 -0.0133399)
(-0.0792828 2.54555e-21 -0.014766)
(-0.0823946 2.14679e-19 -0.0146199)
(-0.0862021 -2.25789e-20 -0.0179641)
(-0.102131 8.77257e-20 -0.0148781)
(-0.238284 1.09633e-19 -0.0231652)
(-0.130368 -1.09381e-18 -0.0681285)
(-0.0709389 1.11422e-19 -0.042115)
(-0.0397476 1.86237e-19 -0.085714)
(-0.0455073 6.13723e-20 -0.0737217)
(-0.0321956 -2.41005e-19 -0.0959452)
(-0.0276255 -9.4233e-20 -0.0931249)
(-0.0194463 2.90618e-19 -0.102142)
(-0.0134161 1.33517e-19 -0.102361)
(-0.00708068 -2.65553e-19 -0.104636)
(-0.0263233 -9.84938e-24 -7.87507e-05)
(-0.0265166 -1.59778e-22 -0.000237457)
(-0.0265707 -3.26317e-21 -0.000397987)
(-0.0266284 2.79344e-20 -0.000555649)
(-0.0267016 8.32762e-21 -0.000713312)
(-0.0267969 1.49632e-21 -0.000871217)
(-0.0269191 -5.06141e-21 -0.00102932)
(-0.0270701 -2.24687e-20 -0.00118736)
(-0.0272496 -1.22709e-19 -0.00134522)
(-0.027456 -1.35742e-19 -0.00150284)
(-0.0276879 -1.26263e-19 -0.00166016)
(-0.0279442 -4.86645e-21 -0.00181719)
(-0.0282242 -1.1762e-19 -0.00197417)
(-0.0285273 -1.49157e-19 -0.0021296)
(-0.0288528 -1.48537e-19 -0.00228464)
(-0.0292013 -7.3034e-21 -0.00243967)
(-0.0295726 -1.40267e-19 -0.00259385)
(-0.0299668 -1.5671e-19 -0.0027472)
(-0.030384 5.75658e-21 -0.00289964)
(-0.0308238 -1.2521e-19 -0.003051)
(-0.0312861 -1.48036e-19 -0.00320103)
(-0.0317707 -1.42122e-19 -0.00334947)
(-0.0322773 1.15223e-20 -0.00349604)
(-0.0328055 -1.83865e-19 -0.00364039)
(-0.0333551 3.49268e-21 -0.00378217)
(-0.0339254 -1.85423e-19 -0.00392096)
(-0.0345161 3.24012e-19 -0.00405632)
(-0.0351267 5.82776e-20 -0.00418779)
(-0.0357564 -1.16277e-19 -0.00431486)
(-0.0364048 -1.62291e-19 -0.004437)
(-0.0370709 -1.40936e-19 -0.00455365)
(-0.037754 2.02001e-20 -0.0046642)
(-0.038453 -1.6171e-19 -0.00476803)
(-0.0391671 -3.76699e-20 -0.00486445)
(-0.0398949 3.88942e-19 -0.00495277)
(-0.0406353 3.22387e-20 -0.00503226)
(-0.0413868 3.73237e-19 -0.00510216)
(-0.042148 1.63044e-20 -0.0051617)
(-0.0429172 1.74069e-20 -0.0052101)
(-0.0436928 3.75251e-19 -0.00524657)
(-0.0444727 3.668e-20 -0.00527033)
(-0.045255 4.66045e-19 -0.0052806)
(-0.0460377 3.64685e-20 -0.00527664)
(-0.0468183 4.4924e-19 -0.00525775)
(-0.0475945 2.7686e-20 -0.00522328)
(-0.0483638 -2.14181e-19 -0.00517267)
(-0.0491237 4.38176e-19 -0.00510541)
(-0.0498713 4.10141e-20 -0.00502114)
(-0.0506039 5.14479e-19 -0.0049196)
(-0.0513186 4.01579e-20 -0.0048007)
(-0.0520127 4.85605e-19 -0.00466449)
(-0.0526831 5.59684e-19 -0.00451124)
(-0.053327 5.38837e-19 -0.00434142)
(-0.0539417 -1.77391e-20 -0.00415572)
(-0.0545243 3.94787e-20 -0.00395511)
(-0.0550724 5.61357e-19 -0.0037408)
(-0.0555836 2.63508e-20 -0.00351433)
(-0.0560556 5.1683e-19 -0.00327751)
(-0.0564867 4.39361e-20 -0.0030325)
(-0.0568753 5.81923e-19 -0.00278178)
(-0.0572204 4.34068e-20 -0.00252818)
(-0.0575212 5.66383e-19 -0.00227443)
(-0.0577779 3.47098e-21 -0.00202482)
(-0.057992 2.33994e-20 -0.00178364)
(-0.0581636 6.0341e-19 -0.0015521)
(-0.0582938 6.26743e-19 -0.00133403)
(-0.0583845 1.2139e-20 -0.00113381)
(-0.0584387 -2.69179e-20 -0.000955696)
(-0.05846 -2.30918e-19 -0.000804029)
(-0.0584527 -2.69464e-20 -0.000683175)
(-0.0584222 3.49392e-20 -0.000597457)
(-0.0583743 -2.06348e-20 -0.000551046)
(-0.058316 -2.60846e-19 -0.000547882)
(-0.0582553 -3.45955e-20 -0.000591696)
(-0.0582007 2.89992e-20 -0.000685981)
(-0.0581604 -2.4253e-19 -0.000833884)
(-0.0581426 -3.68325e-20 -0.0010383)
(-0.0581561 3.74414e-20 -0.00130255)
(-0.0582101 -1.74473e-20 -0.00162289)
(-0.0583089 -2.43055e-19 -0.00200153)
(-0.058464 -4.26245e-20 -0.00244666)
(-0.0586949 4.1021e-20 -0.0029563)
(-0.0590131 -1.66671e-21 -0.00353163)
(-0.0594287 -3.04231e-19 -0.00417192)
(-0.0599522 4.0961e-20 -0.00487554)
(-0.0605943 1.10176e-20 -0.00564083)
(-0.0613646 -2.5879e-19 -0.00646591)
(-0.0622722 -1.06378e-19 -0.00734836)
(-0.0633267 6.41528e-20 -0.00828505)
(-0.0645374 -4.37322e-20 -0.00927205)
(-0.0659144 -2.39794e-19 -0.0103047)
(-0.0674673 5.71851e-20 -0.0113778)
(-0.0692052 -1.00018e-19 -0.0124849)
(-0.0711381 -2.05596e-19 -0.0136124)
(-0.0732703 -6.90622e-20 -0.0147946)
(-0.0756091 -1.96818e-19 -0.0157961)
(-0.0782254 -4.79758e-20 -0.0174499)
(-0.0812441 -3.05644e-19 -0.0174024)
(-0.0851948 -1.56475e-19 -0.0211421)
(-0.0999913 6.64139e-20 -0.0176507)
(-0.212859 -1.15595e-19 -0.0253253)
(-0.12697 -1.38083e-18 -0.0605551)
(-0.0565436 3.91621e-20 -0.0422101)
(-0.0295027 5.57476e-20 -0.0776605)
(-0.0365683 1.52444e-20 -0.0692849)
(-0.0254589 -2.79241e-19 -0.0884509)
(-0.0226044 -3.37668e-20 -0.0867441)
(-0.0158988 4.14219e-19 -0.0950386)
(-0.0112825 -2.47827e-19 -0.0955798)
(-0.0060951 -1.25339e-19 -0.0980163)
(-0.0261538 1.16443e-24 -9.02554e-05)
(-0.026346 6.77924e-23 -0.000272176)
(-0.0264003 1.5393e-21 -0.000456342)
(-0.0264582 1.31538e-19 -0.00063735)
(-0.0265315 9.24578e-21 -0.000818403)
(-0.0266271 -1.28509e-20 -0.000999726)
(-0.0267494 1.33395e-21 -0.00118124)
(-0.0269006 5.86952e-21 -0.00136264)
(-0.0270803 1.39949e-19 -0.00154382)
(-0.027287 1.27882e-20 -0.00172472)
(-0.0275192 1.15918e-19 -0.00190531)
(-0.0277759 1.66097e-20 -0.00208583)
(-0.0280564 1.23332e-19 -0.0022653)