/*--------------------------------*- C++ -*----------------------------------*\
| =========                 |                                                 |
| \\      /  F ield         | OpenFOAM: The Open Source CFD Toolbox           |
|  \\    /   O peration     | Version:  v2106                                 |
|   \\  /    A nd           | Website:  www.openfoam.com                      |
|    \\/     M anipulation  |                                                 |
\*---------------------------------------------------------------------------*/
FoamFile
{
    version     2.0;
    format      ascii;
    arch        "LSB;label=32;scalar=64";
    class       volScalarField;
    location    "0.8";
    object      k;
}
// * * * * * * * * * * * * * * * * * * * * * * * * * * * * * * * * * * * * * //

dimensions      [0 2 -2 0 0 0 0];

internalField   nonuniform List<scalar> 
29678
(
0.000136579
0.000195623
0.000207751
0.000211266
0.000212622
0.000213236
0.000213531
0.000213674
0.000213744
0.00021378
0.000213803
0.000213821
0.000213837
0.000213855
0.000213873
0.000213893
0.000213915
0.000213937
0.000213962
0.000213987
0.000214015
0.000214043
0.000214073
0.000214104
0.000214136
0.000214168
0.000214201
0.000214235
0.000214269
0.000214304
0.000214338
0.000214373
0.000214406
0.000214439
0.000214471
0.000214502
0.000214532
0.000214562
0.00021459
0.000214618
0.000214644
0.00021467
0.000214694
0.000214717
0.000214738
0.000214757
0.000214775
0.00021479
0.000214804
0.000214815
0.000214823
0.000214829
0.000214832
0.000214833
0.000214829
0.000214823
0.000214813
0.0002148
0.000214783
0.000214761
0.000214736
0.000214705
0.000214667
0.000214623
0.000214576
0.000214525
0.000214472
0.000214416
0.000214359
0.000214301
0.000214242
0.000214184
0.000214129
0.00021408
0.000214037
0.000214004
0.00021398
0.000213969
0.00021397
0.000213987
0.000214019
0.000214069
0.000214136
0.00021422
0.000214321
0.000214435
0.000214558
0.000214689
0.000214825
0.000214965
0.000215107
0.000215252
0.000215399
0.00021555
0.00021571
0.000215892
0.000216222
0.000217143
0.000222852
0.000262918
0.00024462
0.000246383
0.000238559
0.000234499
0.00023086
0.000228903
0.00022848
0.000227366
0.000225014
0.000221393
0.000136576
0.000195626
0.000207754
0.00021127
0.000212628
0.000213244
0.000213542
0.000213688
0.000213761
0.000213801
0.000213827
0.000213849
0.000213871
0.000213893
0.000213917
0.000213943
0.000213971
0.000214001
0.000214032
0.000214065
0.0002141
0.000214137
0.000214174
0.000214212
0.000214248
0.000214285
0.000214321
0.000214357
0.000214394
0.00021443
0.000214466
0.000214502
0.000214537
0.000214573
0.000214608
0.000214642
0.000214676
0.000214709
0.000214742
0.000214773
0.000214803
0.000214831
0.000214859
0.000214884
0.000214908
0.00021493
0.000214949
0.000214967
0.000214981
0.000214993
0.000215002
0.000215008
0.00021501
0.000215009
0.000215004
0.000214996
0.000214983
0.000214966
0.000214945
0.000214919
0.000214889
0.000214855
0.000214816
0.000214772
0.000214725
0.000214674
0.000214619
0.000214562
0.0002145
0.000214436
0.00021437
0.000214305
0.000214241
0.000214182
0.000214132
0.000214091
0.000214063
0.000214048
0.000214049
0.000214067
0.000214104
0.000214161
0.000214236
0.000214328
0.000214437
0.000214558
0.00021469
0.00021483
0.000214975
0.000215124
0.000215277
0.000215433
0.000215594
0.000215758
0.000215935
0.00021612
0.000216434
0.000217178
0.000220789
0.000246363
0.000240909
0.000243067
0.000237546
0.000235405
0.000231294
0.000229731
0.000228437
0.000226946
0.000224205
0.000220341
0.000136579
0.000195631
0.000207757
0.000211275
0.000212634
0.000213252
0.000213552
0.000213701
0.000213777
0.00021382
0.000213849
0.000213875
0.000213901
0.000213927
0.000213956
0.000213987
0.00021402
0.000214056
0.000214093
0.000214133
0.000214174
0.000214214
0.000214254
0.000214294
0.000214335
0.000214375
0.000214415
0.000214455
0.000214496
0.000214536
0.000214575
0.000214615
0.000214654
0.000214693
0.000214731
0.000214769
0.000214806
0.000214842
0.000214877
0.000214911
0.000214944
0.000214975
0.000215005
0.000215032
0.000215058
0.000215082
0.000215103
0.000215122
0.000215137
0.00021515
0.00021516
0.000215166
0.000215169
0.000215167
0.000215162
0.000215153
0.000215139
0.000215121
0.000215098
0.000215071
0.000215038
0.000215001
0.000214959
0.000214912
0.000214862
0.000214807
0.000214748
0.000214687
0.000214623
0.000214557
0.000214489
0.000214419
0.000214349
0.000214282
0.000214223
0.000214175
0.000214141
0.000214122
0.000214122
0.000214141
0.00021418
0.000214241
0.000214323
0.000214423
0.00021454
0.000214671
0.000214811
0.000214958
0.00021511
0.000215267
0.000215429
0.000215596
0.000215767
0.000215943
0.000216128
0.000216307
0.000216603
0.000217213
0.000219957
0.000238904
0.000237831
0.000239675
0.000235359
0.000234689
0.000230471
0.000229859
0.00022835
0.000227049
0.000224485
0.000220619
0.000136581
0.000195636
0.000207762
0.000211281
0.000212642
0.000213261
0.000213563
0.000213713
0.000213791
0.000213835
0.000213867
0.000213895
0.000213922
0.000213952
0.000213983
0.000214017
0.000214053
0.000214092
0.000214133
0.000214176
0.000214218
0.00021426
0.000214302
0.000214345
0.000214387
0.000214429
0.00021447
0.000214512
0.000214554
0.000214595
0.000214636
0.000214677
0.000214717
0.000214757
0.000214796
0.000214835
0.000214873
0.00021491
0.000214945
0.00021498
0.000215013
0.000215045
0.000215075
0.000215104
0.00021513
0.000215154
0.000215176
0.000215195
0.000215212
0.000215225
0.000215235
0.000215242
0.000215245
0.000215245
0.00021524
0.000215231
0.000215218
0.000215201
0.000215179
0.000215152
0.00021512
0.000215084
0.000215043
0.000214997
0.000214947
0.000214893
0.000214835
0.000214773
0.000214709
0.000214642
0.000214575
0.000214507
0.000214436
0.000214367
0.000214304
0.000214252
0.000214214
0.000214194
0.000214194
0.000214214
0.000214257
0.000214323
0.000214411
0.000214517
0.00021464
0.000214775
0.000214918
0.000215069
0.000215225
0.000215386
0.000215552
0.000215724
0.0002159
0.000216081
0.000216266
0.000216439
0.000216703
0.000217238
0.000219468
0.000233846
0.000235141
0.000235831
0.000233843
0.000233501
0.000230071
0.000230034
0.000228548
0.000227527
0.000225101
0.000221206
0.000136581
0.000195642
0.000207768
0.000211288
0.00021265
0.000213271
0.000213574
0.000213725
0.000213803
0.000213849
0.000213881
0.00021391
0.000213939
0.00021397
0.000214002
0.000214038
0.000214076
0.000214116
0.000214159
0.000214202
0.000214244
0.000214287
0.00021433
0.000214372
0.000214415
0.000214457
0.000214499
0.000214541
0.000214583
0.000214625
0.000214666
0.000214707
0.000214747
0.000214787
0.000214827
0.000214865
0.000214903
0.00021494
0.000214976
0.000215011
0.000215045
0.000215077
0.000215107
0.000215136
0.000215163
0.000215187
0.000215209
0.000215229
0.000215246
0.00021526
0.000215271
0.000215279
0.000215283
0.000215283
0.000215279
0.000215272
0.00021526
0.000215244
0.000215223
0.000215197
0.000215167
0.000215133
0.000215094
0.00021505
0.000215002
0.00021495
0.000214894
0.000214834
0.000214773
0.000214709
0.000214645
0.000214579
0.000214512
0.000214445
0.000214382
0.000214331
0.000214294
0.000214275
0.000214276
0.000214299
0.000214345
0.000214416
0.000214507
0.000214617
0.000214742
0.000214878
0.000215022
0.000215172
0.000215329
0.000215491
0.000215659
0.000215833
0.000216012
0.000216196
0.000216383
0.000216557
0.0002168
0.00021727
0.000219226
0.000231206
0.000233106
0.000233388
0.000232649
0.000232217
0.000229415
0.000229703
0.000228364
0.000227656
0.000225466
0.000221668
0.000136577
0.000195649
0.000207774
0.000211296
0.00021266
0.000213282
0.000213586
0.000213738
0.000213816
0.000213862
0.000213895
0.000213924
0.000213954
0.000213985
0.000214018
0.000214055
0.000214093
0.000214134
0.000214177
0.00021422
0.000214262
0.000214305
0.000214347
0.00021439
0.000214432
0.000214474
0.000214516
0.000214558
0.0002146
0.000214642
0.000214683
0.000214724
0.000214764
0.000214804
0.000214844
0.000214883
0.000214921
0.000214958
0.000214994
0.000215029
0.000215063
0.000215096
0.000215127
0.000215156
0.000215183
0.000215208
0.000215231
0.000215252
0.00021527
0.000215284
0.000215296
0.000215305
0.00021531
0.000215312
0.00021531
0.000215303
0.000215293
0.000215278
0.000215259
0.000215235
0.000215207
0.000215175
0.000215137
0.000215096
0.00021505
0.000215001
0.000214947
0.000214891
0.000214832
0.000214772
0.000214712
0.00021465
0.000214587
0.000214525
0.000214467
0.000214418
0.000214384
0.000214367
0.000214371
0.000214397
0.000214446
0.000214519
0.000214613
0.000214724
0.000214848
0.000214982
0.000215124
0.000215274
0.00021543
0.000215593
0.000215763
0.000215939
0.000216122
0.00021631
0.000216501
0.000216681
0.000216911
0.000217312
0.00021904
0.000229811
0.000231712
0.000231924
0.000231612
0.000230971
0.00022879
0.000229337
0.000228203
0.000227796
0.00022588
0.000222208
0.00013657
0.000195655
0.000207782
0.000211306
0.000212672
0.000213295
0.0002136
0.000213752
0.000213831
0.000213877
0.00021391
0.00021394
0.000213969
0.000214001
0.000214034
0.000214071
0.00021411
0.000214151
0.000214193
0.000214235
0.000214278
0.00021432
0.000214362
0.000214404
0.000214446
0.000214488
0.00021453
0.000214572
0.000214613
0.000214655
0.000214696
0.000214737
0.000214777
0.000214818
0.000214857
0.000214896
0.000214935
0.000214972
0.000215009
0.000215045
0.000215079
0.000215112
0.000215144
0.000215174
0.000215202
0.000215228
0.000215252
0.000215273
0.000215292
0.000215308
0.000215321
0.000215331
0.000215338
0.000215341
0.00021534
0.000215336
0.000215327
0.000215314
0.000215297
0.000215275
0.000215249
0.000215219
0.000215184
0.000215145
0.000215102
0.000215055
0.000215005
0.000214952
0.000214897
0.000214841
0.000214784
0.000214726
0.000214668
0.000214612
0.000214559
0.000214515
0.000214484
0.000214471
0.000214477
0.000214505
0.000214556
0.00021463
0.000214725
0.000214835
0.000214958
0.00021509
0.00021523
0.000215378
0.000215535
0.000215699
0.000215871
0.000216052
0.000216239
0.000216432
0.000216629
0.000216817
0.000217042
0.000217392
0.000218973
0.000228955
0.000230741
0.000231017
0.000230886
0.000229959
0.000228193
0.000228868
0.000227895
0.000227712
0.000226071
0.000222646
0.000136561
0.000195662
0.00020779
0.000211317
0.000212685
0.00021331
0.000213616
0.000213768
0.000213847
0.000213893
0.000213927
0.000213956
0.000213986
0.000214018
0.000214052
0.000214088
0.000214127
0.000214168
0.00021421
0.000214251
0.000214293
0.000214334
0.000214376
0.000214417
0.000214459
0.000214501
0.000214543
0.000214584
0.000214626
0.000214667
0.000214709
0.00021475
0.000214791
0.000214831
0.000214871
0.00021491
0.000214949
0.000214987
0.000215024
0.000215061
0.000215096
0.000215129
0.000215162
0.000215193
0.000215222
0.000215249
0.000215274
0.000215297
0.000215317
0.000215334
0.000215349
0.00021536
0.000215369
0.000215374
0.000215375
0.000215372
0.000215365
0.000215355
0.00021534
0.00021532
0.000215297
0.000215269
0.000215237
0.0002152
0.00021516
0.000215117
0.00021507
0.00021502
0.000214969
0.000214917
0.000214865
0.000214811
0.000214757
0.000214706
0.000214659
0.000214619
0.000214593
0.000214582
0.00021459
0.00021462
0.000214671
0.000214745
0.000214839
0.000214949
0.000215069
0.000215199
0.000215338
0.000215487
0.000215645
0.000215812
0.000215988
0.000216173
0.000216366
0.000216565
0.000216768
0.00021697
0.000217198
0.000217525
0.000219018
0.000228362
0.00023004
0.000230363
0.000230435
0.000229072
0.000227633
0.000228365
0.000227545
0.000227538
0.000226156
0.000223032
0.000136548
0.000195669
0.000207799
0.000211329
0.0002127
0.000213327
0.000213633
0.000213786
0.000213866
0.000213912
0.000213945
0.000213975
0.000214005
0.000214036
0.000214071
0.000214107
0.000214147
0.000214187
0.000214227
0.000214268
0.000214309
0.00021435
0.000214391
0.000214432
0.000214473
0.000214515
0.000214556
0.000214598
0.00021464
0.000214681
0.000214722
0.000214764
0.000214805
0.000214845
0.000214886
0.000214925
0.000214965
0.000215003
0.000215041
0.000215078
0.000215114
0.000215148
0.000215182
0.000215214
0.000215244
0.000215272
0.000215299
0.000215323
0.000215344
0.000215363
0.00021538
0.000215393
0.000215403
0.00021541
0.000215413
0.000215413
0.000215408
0.0002154
0.000215387
0.000215371
0.00021535
0.000215325
0.000215296
0.000215262
0.000215226
0.000215185
0.000215142
0.000215096
0.000215049
0.000215001
0.000214953
0.000214904
0.000214854
0.000214807
0.000214764
0.000214729
0.000214705
0.000214696
0.000214705
0.000214735
0.000214787
0.000214861
0.000214954
0.000215062
0.000215181
0.00021531
0.00021545
0.0002156
0.000215761
0.000215932
0.000216114
0.000216304
0.000216502
0.000216709
0.000216923
0.000217142
0.000217377
0.000217704
0.000219143
0.000227943
0.00022952
0.000229855
0.000230202
0.000228321
0.000227161
0.000227869
0.000227178
0.000227285
0.000226115
0.000223318
0.000136532
0.000195676
0.000207808
0.000211342
0.000212717
0.000213346
0.000213653
0.000213807
0.000213886
0.000213933
0.000213966
0.000213996
0.000214026
0.000214057
0.000214092
0.000214129
0.000214167
0.000214206
0.000214246
0.000214286
0.000214326
0.000214366
0.000214407
0.000214448
0.000214489
0.00021453
0.000214571
0.000214613
0.000214654
0.000214696
0.000214737
0.000214779
0.00021482
0.000214861
0.000214902
0.000214942
0.000214982
0.000215021
0.00021506
0.000215097
0.000215134
0.00021517
0.000215204
0.000215237
0.000215269
0.000215298
0.000215326
0.000215352
0.000215375
0.000215396
0.000215414
0.00021543
0.000215442
0.000215451
0.000215457
0.000215458
0.000215457
0.000215451
0.000215441
0.000215428
0.00021541
0.000215388
0.000215362
0.000215332
0.000215299
0.000215262
0.000215222
0.00021518
0.000215137
0.000215093
0.000215049
0.000215004
0.000214957
0.000214913
0.000214873
0.00021484
0.000214818
0.000214811
0.000214821
0.000214851
0.000214903
0.000214976
0.000215067
0.000215175
0.000215293
0.000215423
0.000215565
0.000215718
0.000215883
0.00021606
0.000216247
0.000216444
0.000216649
0.000216867
0.000217093
0.000217333
0.000217578
0.00021792
0.000219329
0.000227651
0.000229131
0.000229452
0.000230108
0.00022771
0.000226787
0.00022739
0.000226816
0.000226974
0.00022587
0.000223464
0.000136514
0.000195683
0.000207819
0.000211357
0.000212735
0.000213367
0.000213675
0.000213829
0.000213909
0.000213955
0.000213989
0.000214019
0.000214049
0.000214081
0.000214115
0.000214152
0.000214189
0.000214227
0.000214266
0.000214305
0.000214344
0.000214384
0.000214424
0.000214465
0.000214506
0.000214547
0.000214588
0.000214629
0.000214671
0.000214712
0.000214754
0.000214795
0.000214837
0.000214878
0.000214919
0.00021496
0.000215001
0.000215041
0.00021508
0.000215118
0.000215156
0.000215193
0.000215229
0.000215263
0.000215296
0.000215327
0.000215356
0.000215384
0.000215409
0.000215432
0.000215453
0.00021547
0.000215485
0.000215496
0.000215505
0.000215509
0.00021551
0.000215508
0.000215501
0.000215491
0.000215476
0.000215457
0.000215435
0.000215409
0.000215379
0.000215346
0.00021531
0.000215273
0.000215233
0.000215193
0.000215152
0.00021511
0.000215067
0.000215025
0.000214987
0.000214955
0.000214934
0.000214928
0.000214938
0.000214968
0.000215019
0.000215091
0.000215181
0.000215288
0.000215407
0.000215539
0.000215683
0.000215841
0.000216011
0.000216194
0.000216389
0.000216593
0.000216809
0.00021704
0.00021728
0.000217544
0.000217801
0.000218173
0.000219568
0.000227455
0.000228841
0.000229134
0.000230101
0.000227245
0.000226486
0.000226923
0.000226387
0.000226565
0.000225183
0.000223384
0.000136492
0.00019569
0.00020783
0.000211373
0.000212755
0.000213389
0.000213699
0.000213853
0.000213933
0.00021398
0.000214014
0.000214044
0.000214074
0.000214106
0.00021414
0.000214176
0.000214213
0.00021425
0.000214287
0.000214326
0.000214364
0.000214404
0.000214443
0.000214483
0.000214524
0.000214564
0.000214605
0.000214647
0.000214688
0.00021473
0.000214771
0.000214813
0.000214855
0.000214897
0.000214939
0.00021498
0.000215021
0.000215062
0.000215102
0.000215142
0.000215181
0.000215219
0.000215255
0.000215291
0.000215326
0.000215359
0.00021539
0.000215419
0.000215447
0.000215472
0.000215495
0.000215515
0.000215532
0.000215546
0.000215558
0.000215565
0.00021557
0.00021557
0.000215567
0.00021556
0.000215549
0.000215534
0.000215516
0.000215494
0.000215468
0.000215439
0.000215407
0.000215373
0.000215337
0.0002153
0.000215263
0.000215225
0.000215184
0.000215144
0.000215107
0.000215076
0.000215056
0.000215049
0.00021506
0.000215089
0.000215138
0.000215208
0.000215299
0.000215405
0.000215524
0.000215658
0.000215806
0.000215969
0.000216146
0.000216336
0.000216539
0.000216753
0.000216982
0.000217229
0.000217487
0.000217777
0.000218049
0.000218461
0.000219855
0.000227336
0.000228629
0.00022889
0.000230157
0.000226915
0.000226205
0.000226436
0.000225702
0.000225823
0.000224134
0.000222785
0.000136467
0.000195697
0.000207842
0.00021139
0.000212777
0.000213413
0.000213724
0.00021388
0.00021396
0.000214007
0.000214041
0.000214071
0.000214101
0.000214133
0.000214167
0.000214201
0.000214237
0.000214273
0.00021431
0.000214347
0.000214385
0.000214424
0.000214463
0.000214503
0.000214543
0.000214583
0.000214624
0.000214665
0.000214707
0.000214749
0.000214791
0.000214833
0.000214875
0.000214917
0.000214959
0.000215001
0.000215043
0.000215085
0.000215126
0.000215167
0.000215207
0.000215246
0.000215285
0.000215322
0.000215358
0.000215393
0.000215426
0.000215458
0.000215488
0.000215515
0.000215541
0.000215564
0.000215584
0.000215601
0.000215616
0.000215627
0.000215635
0.000215639
0.00021564
0.000215637
0.00021563
0.000215619
0.000215605
0.000215587
0.000215565
0.00021554
0.000215513
0.000215483
0.000215451
0.000215418
0.000215384
0.00021535
0.000215313
0.000215274
0.000215238
0.000215208
0.000215187
0.00021518
0.00021519
0.000215217
0.000215265
0.000215333
0.000215422
0.000215527
0.000215647
0.000215783
0.000215935
0.000216103
0.000216287
0.000216487
0.000216699
0.000216926
0.000217171
0.000217435
0.000217713
0.000218033
0.000218323
0.000218787
0.000220193
0.000227279
0.000228483
0.000228715
0.000230269
0.000226697
0.000225922
0.000225902
0.000224791
0.00022467
0.000222837
0.000221692
0.000136439
0.000195704
0.000207854
0.000211408
0.0002128
0.000213439
0.000213752
0.000213908
0.000213989
0.000214036
0.000214069
0.0002141
0.00021413
0.000214162
0.000214194
0.000214228
0.000214262
0.000214297
0.000214333
0.00021437
0.000214407
0.000214445
0.000214484
0.000214523
0.000214563
0.000214603
0.000214644
0.000214685
0.000214727
0.000214769
0.000214811
0.000214853
0.000214896
0.000214939
0.000214982
0.000215024
0.000215067
0.00021511
0.000215152
0.000215194
0.000215235
0.000215276
0.000215316
0.000215355
0.000215393
0.00021543
0.000215466
0.0002155
0.000215532
0.000215562
0.000215591
0.000215617
0.00021564
0.000215661
0.000215679
0.000215694
0.000215706
0.000215714
0.000215719
0.00021572
0.000215718
0.000215711
0.000215702
0.000215688
0.000215671
0.000215651
0.000215628
0.000215602
0.000215575
0.000215546
0.000215515
0.000215485
0.000215453
0.000215418
0.000215384
0.000215355
0.000215334
0.000215326
0.000215333
0.000215359
0.000215404
0.000215471
0.000215556
0.000215659
0.000215779
0.000215916
0.000216071
0.000216245
0.000216437
0.000216646
0.00021687
0.000217112
0.000217375
0.00021766
0.000217963
0.000218316
0.000218627
0.000219155
0.000220583
0.000227277
0.000228394
0.000228603
0.000230436
0.000226569
0.000225624
0.000225243
0.000223884
0.000223304
0.00022158
0.000220374
0.000136408
0.000195712
0.000207867
0.000211428
0.000212824
0.000213467
0.000213781
0.000213938
0.000214019
0.000214066
0.0002141
0.00021413
0.00021416
0.000214191
0.000214222
0.000214254
0.000214288
0.000214322
0.000214357
0.000214393
0.00021443
0.000214468
0.000214506
0.000214545
0.000214584
0.000214625
0.000214665
0.000214706
0.000214748
0.00021479
0.000214832
0.000214875
0.000214918
0.000214962
0.000215005
0.000215049
0.000215093
0.000215136
0.00021518
0.000215223
0.000215266
0.000215308
0.00021535
0.000215391
0.000215431
0.00021547
0.000215508
0.000215545
0.00021558
0.000215613
0.000215645
0.000215674
0.000215701
0.000215726
0.000215748
0.000215767
0.000215783
0.000215796
0.000215805
0.000215811
0.000215813
0.000215812
0.000215807
0.000215799
0.000215787
0.000215772
0.000215754
0.000215733
0.00021571
0.000215685
0.000215659
0.000215633
0.000215607
0.000215579
0.00021555
0.000215523
0.000215503
0.000215494
0.000215499
0.000215521
0.000215564
0.000215626
0.000215706
0.000215805
0.000215922
0.000216059
0.000216217
0.000216395
0.000216596
0.000216816
0.000217054
0.000217313
0.000217598
0.000217907
0.000218238
0.000218628
0.000218965
0.000219568
0.000221027
0.000227322
0.000228352
0.000228546
0.000230644
0.000226502
0.000225253
0.000224361
0.000223118
0.000222163
0.000220577
0.000219293
0.000136375
0.000195719
0.000207881
0.000211448
0.00021285
0.000213496
0.000213812
0.00021397
0.000214051
0.000214099
0.000214133
0.000214162
0.000214191
0.00021422
0.00021425
0.000214282
0.000214314
0.000214348
0.000214382
0.000214418
0.000214454
0.000214491
0.000214529
0.000214567
0.000214607
0.000214647
0.000214687
0.000214728
0.00021477
0.000214812
0.000214855
0.000214899
0.000214942
0.000214986
0.00021503
0.000215075
0.00021512
0.000215164
0.000215209
0.000215254
0.000215298
0.000215342
0.000215386
0.000215429
0.000215472
0.000215513
0.000215554
0.000215593
0.000215631
0.000215668
0.000215703
0.000215736
0.000215767
0.000215796
0.000215822
0.000215846
0.000215866
0.000215884
0.000215899
0.00021591
0.000215918
0.000215922
0.000215923
0.00021592
0.000215914
0.000215904
0.000215892
0.000215876
0.000215859
0.000215839
0.000215818
0.000215796
0.000215774
0.000215754
0.000215734
0.000215713
0.000215697
0.000215689
0.000215693
0.000215713
0.000215749
0.000215804
0.000215877
0.000215969
0.000216082
0.000216217
0.000216375
0.000216558
0.000216766
0.000216999
0.000217253
0.000217532
0.00021784
0.000218177
0.000218542
0.000218972
0.000219345
0.000220032
0.000221527
0.00022741
0.000228353
0.000228538
0.000230841
0.000226426
0.000224869
0.000223773
0.00022259
0.000221421
0.000219957
0.00021864
0.000136338
0.000195727
0.000207895
0.00021147
0.000212877
0.000213527
0.000213845
0.000214004
0.000214085
0.000214132
0.000214165
0.000214194
0.000214221
0.00021425
0.000214279
0.00021431
0.000214341
0.000214374
0.000214408
0.000214443
0.000214479
0.000214515
0.000214553
0.000214591
0.00021463
0.00021467
0.00021471
0.000214752
0.000214793
0.000214836
0.000214879
0.000214923
0.000214967
0.000215012
0.000215057
0.000215102
0.000215148
0.000215194
0.00021524
0.000215286
0.000215333
0.000215379
0.000215424
0.00021547
0.000215515
0.000215559
0.000215602
0.000215645
0.000215686
0.000215727
0.000215765
0.000215802
0.000215838
0.000215871
0.000215902
0.000215931
0.000215957
0.00021598
0.000216
0.000216017
0.000216031
0.000216041
0.000216048
0.000216052
0.000216052
0.000216049
0.000216042
0.000216033
0.000216021
0.000216007
0.000215992
0.000215976
0.000215959
0.000215944
0.00021593
0.00021592
0.000215913
0.00021591
0.000215915
0.000215932
0.000215962
0.000216009
0.000216074
0.000216158
0.000216264
0.000216394
0.00021655
0.000216735
0.000216952
0.000217197
0.000217469
0.000217771
0.000218106
0.000218475
0.000218878
0.000219354
0.000219772
0.000220551
0.000222062
0.000227534
0.000228388
0.000228574
0.000231087
0.000226196
0.000224578
0.000223461
0.000222319
0.000221075
0.000219707
0.00021838
0.000136298
0.000195734
0.00020791
0.000211492
0.000212905
0.000213559
0.000213879
0.000214039
0.00021412
0.000214166
0.000214198
0.000214226
0.000214252
0.00021428
0.000214308
0.000214338
0.000214369
0.000214401
0.000214434
0.000214468
0.000214504
0.00021454
0.000214577
0.000214615
0.000214654
0.000214694
0.000214734
0.000214776
0.000214818
0.000214861
0.000214904
0.000214948
0.000214993
0.000215039
0.000215085
0.000215131
0.000215178
0.000215225
0.000215273
0.000215321
0.000215369
0.000215417
0.000215465
0.000215513
0.00021556
0.000215607
0.000215654
0.0002157
0.000215745
0.000215789
0.000215832
0.000215874
0.000215913
0.000215952
0.000215988
0.000216022
0.000216054
0.000216083
0.00021611
0.000216133
0.000216154
0.000216171
0.000216185
0.000216195
0.000216203
0.000216207
0.000216207
0.000216205
0.0002162
0.000216193
0.000216184
0.000216174
0.000216164
0.000216154
0.000216147
0.000216141
0.000216139
0.000216144
0.000216155
0.000216174
0.000216203
0.000216244
0.000216301
0.000216376
0.000216473
0.000216595
0.000216747
0.000216933
0.000217155
0.000217414
0.000217706
0.000218032
0.000218399
0.000218805
0.000219252
0.000219778
0.000220255
0.00022113
0.00022263
0.000227692
0.000228461
0.000228652
0.000231448
0.000226201
0.000224517
0.000223471
0.000222309
0.000221078
0.000219758
0.000218443
0.000136256
0.000195742
0.000207926
0.000211515
0.000212935
0.000213592
0.000213915
0.000214074
0.000214154
0.0002142
0.000214231
0.000214257
0.000214283
0.00021431
0.000214337
0.000214366
0.000214397
0.000214428
0.000214461
0.000214495
0.000214529
0.000214565
0.000214602
0.00021464
0.000214679
0.000214718
0.000214759
0.0002148
0.000214843
0.000214886
0.00021493
0.000214975
0.00021502
0.000215067
0.000215114
0.000215161
0.00021521
0.000215258
0.000215308
0.000215357
0.000215407
0.000215457
0.000215508
0.000215558
0.000215608
0.000215659
0.000215709
0.000215758
0.000215807
0.000215856
0.000215903
0.000215949
0.000215994
0.000216038
0.00021608
0.00021612
0.000216158
0.000216194
0.000216228
0.000216259
0.000216286
0.000216311
0.000216333
0.000216352
0.000216367
0.000216379
0.000216388
0.000216394
0.000216397
0.000216398
0.000216397
0.000216394
0.000216391
0.000216388
0.000216387
0.000216387
0.000216391
0.0002164
0.000216415
0.000216437
0.000216469
0.000216509
0.000216561
0.000216628
0.000216715
0.000216827
0.000216972
0.000217155
0.000217382
0.000217653
0.000217966
0.000218321
0.000218723
0.00021917
0.000219668
0.000220253
0.0002208
0.000221745
0.000223229
0.000227892
0.000228575
0.00022878
0.000231779
0.000226261
0.000224591
0.000223611
0.000222512
0.000221348
0.000220062
0.00021875
0.00013621
0.000195749
0.000207941
0.00021154
0.000212966
0.000213627
0.00021395
0.000214109
0.000214188
0.000214233
0.000214263
0.000214289
0.000214314
0.00021434
0.000214367
0.000214395
0.000214425
0.000214456
0.000214488
0.000214521
0.000214555
0.000214591
0.000214628
0.000214665
0.000214704
0.000214744
0.000214784
0.000214826
0.000214869
0.000214912
0.000214957
0.000215002
0.000215049
0.000215096
0.000215144
0.000215193
0.000215242
0.000215293
0.000215343
0.000215395
0.000215447
0.0002155
0.000215552
0.000215606
0.000215659
0.000215713
0.000215766
0.00021582
0.000215873
0.000215926
0.000215978
0.00021603
0.000216081
0.00021613
0.000216179
0.000216225
0.000216271
0.000216314
0.000216355
0.000216394
0.00021643
0.000216464
0.000216495
0.000216522
0.000216547
0.000216568
0.000216587
0.000216602
0.000216614
0.000216624
0.000216632
0.000216638
0.000216644
0.000216649
0.000216655
0.000216662
0.000216672
0.000216686
0.000216704
0.000216729
0.000216762
0.000216804
0.000216856
0.000216918
0.000216997
0.000217098
0.000217232
0.00021741
0.000217638
0.00021792
0.000218255
0.00021864
0.000219081
0.000219576
0.000220133
0.000220784
0.000221399
0.000222386
0.000223859
0.000228135
0.000228726
0.000228959
0.00023213
0.000226305
0.000224769
0.000223851
0.000222813
0.000221804
0.000220553
0.000219211
0.000136162
0.000195757
0.000207958
0.000211565
0.000212997
0.000213662
0.000213985
0.000214143
0.000214222
0.000214266
0.000214295
0.00021432
0.000214345
0.00021437
0.000214396
0.000214424
0.000214453
0.000214483
0.000214515
0.000214548
0.000214582
0.000214617
0.000214653
0.000214691
0.00021473
0.000214769
0.00021481
0.000214852
0.000214895
0.000214939
0.000214984
0.000215031
0.000215078
0.000215126
0.000215175
0.000215225
0.000215276
0.000215328
0.000215381
0.000215434
0.000215489
0.000215544
0.000215599
0.000215656
0.000215712
0.00021577
0.000215827
0.000215885
0.000215943
0.000216
0.000216058
0.000216115
0.000216172
0.000216228
0.000216284
0.000216338
0.000216391
0.000216442
0.000216492
0.00021654
0.000216586
0.000216629
0.00021667
0.000216708
0.000216743
0.000216775
0.000216805
0.000216831
0.000216854
0.000216875
0.000216894
0.00021691
0.000216926
0.000216941
0.000216955
0.000216971
0.000216988
0.000217007
0.00021703
0.000217058
0.000217092
0.000217135
0.000217186
0.000217248
0.000217322
0.000217415
0.000217537
0.000217704
0.00021793
0.000218221
0.000218578
0.000218995
0.00021948
0.000220029
0.000220651
0.00022136
0.000222021
0.000223055
0.000224519
0.00022842
0.000228915
0.000229191
0.000232512
0.000226401
0.000225048
0.00022418
0.0002232
0.000222286
0.00022116
0.000219728
0.000136111
0.000195764
0.000207974
0.00021159
0.000213029
0.000213696
0.000214019
0.000214177
0.000214255
0.000214298
0.000214327
0.000214351
0.000214375
0.0002144
0.000214425
0.000214453
0.000214481
0.000214511
0.000214542
0.000214575
0.000214609
0.000214644
0.00021468
0.000214717
0.000214756
0.000214796
0.000214837
0.000214879
0.000214922
0.000214967
0.000215013
0.00021506
0.000215108
0.000215157
0.000215207
0.000215259
0.000215311
0.000215365
0.00021542
0.000215475
0.000215532
0.00021559
0.000215648
0.000215708
0.000215768
0.000215829
0.000215891
0.000215953
0.000216016
0.000216079
0.000216142
0.000216206
0.000216269
0.000216333
0.000216396
0.000216458
0.00021652
0.00021658
0.00021664
0.000216698
0.000216754
0.000216809
0.000216861
0.000216911
0.000216958
0.000217003
0.000217044
0.000217083
0.00021712
0.000217153
0.000217185
0.000217214
0.000217241
0.000217267
0.000217293
0.000217318
0.000217343
0.000217369
0.000217398
0.00021743
0.000217467
0.00021751
0.00021756
0.000217621
0.000217695
0.000217783
0.000217895
0.00021805
0.000218268
0.000218564
0.000218941
0.000219392
0.000219926
0.000220532
0.0002212
0.000221956
0.000222664
0.000223755
0.000225209
0.000228747
0.000229143
0.000229486
0.000232916
0.000226567
0.000225419
0.000224585
0.000223654
0.000222795
0.000221725
0.000220145
0.000136057
0.000195772
0.000207991
0.000211616
0.000213061
0.00021373
0.000214053
0.00021421
0.000214288
0.00021433
0.000214358
0.000214382
0.000214405
0.000214429
0.000214454
0.000214481
0.000214509
0.000214539
0.00021457
0.000214602
0.000214635
0.00021467
0.000214706
0.000214744
0.000214782
0.000214822
0.000214864
0.000214906
0.00021495
0.000214995