/*--------------------------------*- C++ -*----------------------------------*\
| =========                 |                                                 |
| \\      /  F ield         | OpenFOAM: The Open Source CFD Toolbox           |
|  \\    /   O peration     | Version:  v2106                                 |
|   \\  /    A nd           | Website:  www.openfoam.com                      |
|    \\/     M anipulation  |                                                 |
\*---------------------------------------------------------------------------*/
FoamFile
{
    version     2.0;
    format      ascii;
    arch        "LSB;label=32;scalar=64";
    class       volScalarField;
    location    "0.8";
    object      nut;
}
// * * * * * * * * * * * * * * * * * * * * * * * * * * * * * * * * * * * * * //

dimensions      [0 2 -1 0 0 0 0];

internalField   nonuniform List<scalar> 
29678
(
1.92816e-05
0.000150148
0.000448766
0.000819375
0.00112343
0.00131138
0.00140563
0.00144558
0.00146029
0.0014651
0.00146654
0.00146696
0.0014671
0.00146717
0.00146724
0.0014673
0.00146737
0.00146745
0.00146753
0.00146761
0.0014677
0.0014678
0.00146789
0.00146799
0.00146809
0.00146819
0.0014683
0.0014684
0.0014685
0.00146859
0.00145696
0.00141624
0.00137815
0.00134312
0.00131107
0.00128183
0.00125528
0.00123133
0.00120992
0.00119098
0.00117448
0.0011604
0.00114872
0.00113946
0.00113265
0.00112834
0.00112658
0.00112746
0.00113109
0.0011376
0.00114714
0.00115989
0.00117608
0.00119593
0.00121971
0.00124773
0.00128029
0.00131774
0.00136035
0.00140921
0.0014661
0.00146953
0.00146949
0.00146942
0.00146933
0.00146922
0.00146909
0.00146896
0.00146881
0.00146864
0.00146847
0.00146829
0.00146811
0.00146795
0.00146782
0.00146771
0.00146764
0.0014676
0.00146761
0.00146766
0.00146777
0.00146793
0.00146815
0.00146841
0.00146871
0.00144806
0.00135162
0.00126703
0.00119392
0.0011318
0.00108088
0.00104174
0.00101581
0.00100645
0.000991691
0.000994729
0.000868064
0.000762023
6.48681e-05
3.46371e-05
2.38409e-05
1.90471e-05
3.01607e-05
3.30303e-05
5.23792e-05
5.42846e-05
4.93957e-05
3.82782e-05
4.33444e-05
9.35824e-06
1.92814e-05
0.000150171
0.000448835
0.000819476
0.00112353
0.00131146
0.00140568
0.00144562
0.00146033
0.00146515
0.0014666
0.00146702
0.00146718
0.00146726
0.00146734
0.00146742
0.00146751
0.0014676
0.00146769
0.0014678
0.0014679
0.00146801
0.00146197
0.00140332
0.00134774
0.00129603
0.00124801
0.00120334
0.00116183
0.00112337
0.00108783
0.00105508
0.00102492
0.000997275
0.000972029
0.000949066
0.000928275
0.000909558
0.000892838
0.000878051
0.000865149
0.000854099
0.000844883
0.000837497
0.000831954
0.000828279
0.000826514
0.000826716
0.000828959
0.000833337
0.000839964
0.000848974
0.000860529
0.000874814
0.000892045
0.00091247
0.000936377
0.000964099
0.000996044
0.0010328
0.00107514
0.00112351
0.00117767
0.00123771
0.00130433
0.0013777
0.00145722
0.00146911
0.00146901
0.00146888
0.00146873
0.00146855
0.00146837
0.0014682
0.00146805
0.00146793
0.00146785
0.00146781
0.00146782
0.00146788
0.00146799
0.00144458
0.00133926
0.00123635
0.0011409
0.00105529
0.000980238
0.000915258
0.000859394
0.000811869
0.000772198
0.000739863
0.000714581
0.000696962
0.000670581
0.000656531
0.00054438
0.000437274
0.000110361
2.82027e-05
1.5742e-05
1.98883e-05
2.92681e-05
2.83943e-05
3.68106e-05
3.4051e-05
3.88936e-05
3.67189e-05
3.96672e-05
4.21393e-05
1.92816e-05
0.000150207
0.000448944
0.000819632
0.00112367
0.00131157
0.00140575
0.00144568
0.00146039
0.00146521
0.00146666
0.0014671
0.00146726
0.00146736
0.00146745
0.00146755
0.00146765
0.00146775
0.00146787
0.00146799
0.00142627
0.00136008
0.00129872
0.0012425
0.00119069
0.00114279
0.0010985
0.00105757
0.00101982
0.000985123
0.000953246
0.000924062
0.000897334
0.000872937
0.000850752
0.00083064
0.000812473
0.000796144
0.000781561
0.000768655
0.00075737
0.000747666
0.000739519
0.000732917
0.000727862
0.000724369
0.000722465
0.000722191
0.000723604
0.000726773
0.000731786
0.00073875
0.000747791
0.000759055
0.000772718
0.000788982
0.000808087
0.000830321
0.000856042
0.000885776
0.000920069
0.0009593
0.00100357
0.00105325
0.00110913
0.00117164
0.00124047
0.00131512
0.00139465
0.00146907
0.00146898
0.00146885
0.00146868
0.00146849
0.00146832
0.00146819
0.00146809
0.00146804
0.00146804
0.0014681
0.00146822
0.00137991
0.00128049
0.00118398
0.00109448
0.00101433
0.000944479
0.000884296
0.000832682
0.000788663
0.000751475
0.000720283
0.000694358
0.000672462
0.000641033
0.00061316
0.000484954
0.00042241
0.000149145
2.29602e-05
1.88966e-05
1.79902e-05
2.85876e-05
2.37986e-05
4.19816e-05
3.29579e-05
4.11737e-05
3.7546e-05
4.15631e-05
4.40672e-05
1.92817e-05
0.000150249
0.000449071
0.000819817
0.00112385
0.00131169
0.00140584
0.00144574
0.00146044
0.00146526
0.00146672
0.00146716
0.00146733
0.00146744
0.00146754
0.00146764
0.00146775
0.00146787
0.00146799
0.00141768
0.00134853
0.00128525
0.00122773
0.00117526
0.00112724
0.00108324
0.00104294
0.00100602
0.000972178
0.00094115
0.000912682
0.000886507
0.000862423
0.000840316
0.000820097
0.000801676
0.000784967
0.000769895
0.000756395
0.000744413
0.000733909
0.000724855
0.000717234
0.000711041
0.000706281
0.000702971
0.000701139
0.000700826
0.000702084
0.000704981
0.000709599
0.000716035
0.000724406
0.000734848
0.00074752
0.00076261
0.000780332
0.00080094
0.00082473
0.000852055
0.00088326
0.000918496
0.000957809
0.00100168
0.00105092
0.00110624
0.00116797
0.00123631
0.00131082
0.00139069
0.00146915
0.00146906
0.00146893
0.00146875
0.00146858
0.00146843
0.00146832
0.00146827
0.00146827
0.00146833
0.00146846
0.00140719
0.00130493
0.00120557
0.00111377
0.00103199
0.000960621
0.000898796
0.000845242
0.000798914
0.000759075
0.000725022
0.00069638
0.000671539
0.000643548
0.000616877
0.000508345
0.000461562
0.000233433
1.93485e-05
1.85232e-05
1.74213e-05
2.78522e-05
2.4975e-05
4.55001e-05
3.3192e-05
4.51242e-05
4.2158e-05
4.82471e-05
4.27171e-05
1.92817e-05
0.000150293
0.000449206
0.000820014
0.00112403
0.00131183
0.00140592
0.0014458
0.00146049
0.00146531
0.00146676
0.00146721
0.00146738
0.0014675
0.0014676
0.00146771
0.00146783
0.00146795
0.00144725
0.00137587
0.0013102
0.00125103
0.0011972
0.00114803
0.00110294
0.00106152
0.00102348
0.000988524
0.000956394
0.000926856
0.000899686
0.000874675
0.000851649
0.000830482
0.000811077
0.000793349
0.000777226
0.000762643
0.000749545
0.000737889
0.000727642
0.000718782
0.000711297
0.000705187
0.00070046
0.000697136
0.000695244
0.000694827
0.000695937
0.000698643
0.000703025
0.000709182
0.000717227
0.000727298
0.000739552
0.000754173
0.000771374
0.000791403
0.000814542
0.000841111
0.000871438
0.000905791
0.000944411
0.000987758
0.00103657
0.00109151
0.00115302
0.00122128
0.00129617
0.00137798
0.00146807
0.00146923
0.00146913
0.00146898
0.00146882
0.00146867
0.00146856
0.00146851
0.00146852
0.00146859
0.00146872
0.00145607
0.00134175
0.00123152
0.00113093
0.0010423
0.000965373
0.000898796
0.00084103
0.000790906
0.000747672
0.000710772
0.000680118
0.000653788
0.000631609
0.000609196
0.000525924
0.000483666
0.000292261
1.80933e-05
1.97819e-05
1.70214e-05
2.58553e-05
2.58085e-05
5.10946e-05
3.55232e-05
5.09705e-05
4.62679e-05
5.39629e-05
4.67847e-05
1.92814e-05
0.000150337
0.000449344
0.000820217
0.00112423
0.00131197
0.00140602
0.00144586
0.00146054
0.00146535
0.00146681
0.00146726
0.00146743
0.00146755
0.00146765
0.00146776
0.00146788
0.00146801
0.00141692
0.00134881
0.00128699
0.00123076
0.00117931
0.00113216
0.00108884
0.00104896
0.00101221
0.000978327
0.000947082
0.000918261
0.000891672
0.000867141
0.00084452
0.000823691
0.000804558
0.000787042
0.000771071
0.000756589
0.000743545
0.0007319
0.000721624
0.000712698
0.000705111
0.000698864
0.000693966
0.000690436
0.000688304
0.000687612
0.000688412
0.000690772
0.00069477
0.000700505
0.000708092
0.000717665
0.000729385
0.000743438
0.000760043
0.000779452
0.000801958
0.000827897
0.000857636
0.000891558
0.000930082
0.000973774
0.00102342
0.0010798
0.00114365
0.00121558
0.00129591
0.00138613
0.00146941
0.00146938
0.00146931
0.0014692
0.00146906
0.00146893
0.00146883
0.00146879
0.0014688
0.00146887
0.001469
0.00146918
0.0013766
0.0012509
0.00113858
0.00104129
0.000957716
0.000885903
0.00082401
0.000770657
0.000724908
0.000686123
0.000654146
0.000626869
0.000608443
0.000589448
0.000526123
0.00049016
0.000317552
1.87225e-05
2.27594e-05
1.7787e-05
2.43985e-05
2.8856e-05
5.72256e-05
3.93824e-05
5.84992e-05
5.18419e-05
6.22027e-05
5.13094e-05
1.92809e-05
0.000150382
0.000449483
0.000820423
0.00112442
0.00131211
0.00140611
0.00144593
0.00146059
0.0014654
0.00146686
0.0014673
0.00146748
0.0014676
0.0014677
0.00146782
0.00146794
0.0014603
0.0013903
0.00132587
0.00126708
0.00121316
0.00116362
0.00111804
0.00107603
0.00103727
0.00100145
0.000968346
0.000937734
0.000909425
0.000883246
0.000859045
0.000836689
0.000816066
0.000797085
0.000779668
0.00076375
0.000749275
0.000736197
0.000724479
0.000714092
0.000705019
0.000697251
0.000690787
0.000685636
0.000681817
0.000679359
0.000678302
0.000678697
0.000680609
0.000684116
0.000689314
0.000696317
0.000705258
0.000716299
0.000729628
0.000745465
0.00076407
0.000785748
0.000810854
0.000839798
0.000873044
0.000911135
0.00095478
0.00100487
0.00106242
0.00112853
0.00120434
0.00129101
0.00139146
0.00146951
0.00146952
0.00146948
0.0014694
0.0014693
0.00146919
0.00146911
0.00146907
0.00146909
0.00146916
0.00146928
0.00146943
0.00141122
0.00126658
0.00114054
0.00103342
0.000942772
0.000865827
0.000800287
0.000744376
0.000696774
0.000656532
0.000623275
0.000594937
0.00057763
0.000557881
0.000507541
0.000470367
0.000306858
2.06578e-05
2.69315e-05
1.89476e-05
2.36121e-05
3.40524e-05
6.33688e-05
4.49738e-05
6.81396e-05
5.90989e-05
7.30238e-05
5.88501e-05
1.92802e-05
0.000150427
0.000449623
0.000820631
0.00112462
0.00131226
0.00140622
0.001446
0.00146065
0.00146545
0.00146691
0.00146736
0.00146753
0.00146765
0.00146776
0.00146787
0.00146799
0.0014302
0.00136377
0.00130279
0.00124674
0.001195
0.00114725
0.00110315
0.00106239
0.00102467
0.00098973
0.000957353
0.000927343
0.000899526
0.000873745
0.000849863
0.000827759
0.000807329
0.000788487
0.000771157
0.000755278
0.000740796
0.000727668
0.000715858
0.00070534
0.000696097
0.00068812
0.000681409
0.000675971
0.000671824
0.000668997
0.000667526
0.000667462
0.000668866
0.000671815
0.000676401
0.000682736
0.000690952
0.000701208
0.000713691
0.000728623
0.000746268
0.000766939
0.000791007
0.000818915
0.00085119
0.000888466
0.000931569
0.000981526
0.00103958
0.00110723
0.0011862
0.00127855
0.00138878
0.00146958
0.00146962
0.00146961
0.00146958
0.00146951
0.00146944
0.00146938
0.00146935
0.00146936
0.00146941
0.0014695
0.00146962
0.0014464
0.00127926
0.00113762
0.0010198
0.000921978
0.000840274
0.000771652
0.000713747
0.000664716
0.00062326
0.000588845
0.000559313
0.000541645
0.000517383
0.000476872
0.000433261
0.000282521
2.3362e-05
3.16032e-05
1.98163e-05
2.31672e-05
4.13021e-05
6.99948e-05
5.26026e-05
8.01991e-05
6.87378e-05
8.75203e-05
6.90508e-05
1.92793e-05
0.000150473
0.000449764
0.000820842
0.00112483
0.00131242
0.00140633
0.00144608
0.00146071
0.00146551
0.00146697
0.00146741
0.00146759
0.00146771
0.00146782
0.00146793
0.00146578
0.0013986
0.00133607
0.00127847
0.00122506
0.00117551
0.00112959
0.00108702
0.00104754
0.00101089
0.000976861
0.000945242
0.000915862
0.000888563
0.000863205
0.000839662
0.000817825
0.000797599
0.0007789
0.000761659
0.000745818
0.000731325
0.00071814
0.000706229
0.000695567
0.000686138
0.000677932
0.00067095
0.000665198
0.000660693
0.00065746
0.000655537
0.000654968
0.000655814
0.000658148
0.000662059
0.000667655
0.000675066
0.000684445
0.000695977
0.000709883
0.000726425
0.000745921
0.000768755
0.00079539
0.000826392
0.000862469
0.000904534
0.000953742
0.00101156
0.00107985
0.00116096
0.00125789
0.00137654
0.00146962
0.00146968
0.0014697
0.0014697
0.00146967
0.00146963
0.00146958
0.00146956
0.00146956
0.00146959
0.00146965
0.0014697
0.00146975
0.00128416
0.00112636
0.000998329
0.000894302
0.000808908
0.000738169
0.000679046
0.000629159
0.000586984
0.000551715
0.000521059
0.00050239
0.000473095
0.000440373
0.000390814
0.000256452
2.64714e-05
3.64589e-05
2.03316e-05
2.28124e-05
5.02448e-05
7.67949e-05
6.23604e-05
9.48687e-05
8.15441e-05
0.000107793
8.3639e-05
1.92781e-05
0.000150518
0.000449905
0.000821053
0.00112503
0.00131258
0.00140644
0.00144617
0.00146079
0.00146558
0.00146703
0.00146748
0.00146765
0.00146777
0.00146788
0.00146799
0.00142902
0.00136577
0.00130717
0.00125276
0.00120198
0.00115467
0.00111063
0.00106964
0.0010315
0.000995981
0.000962898
0.000932076
0.000903361
0.000876613
0.000851704
0.000828523
0.00080697
0.000786958
0.00076841
0.000751262
0.000735458
0.000720951
0.000707703
0.000695682
0.000684864
0.000675233
0.000666781
0.000659506
0.000653415
0.000648523
0.000644854
0.000642441
0.000641328
0.000641571
0.000643239
0.000646418
0.000651211
0.000657742
0.000666159
0.000676642
0.000689406
0.00070471
0.000722869
0.000744269
0.000769384
0.000798801
0.00083327
0.000873761
0.000921529
0.000978217
0.00104601
0.00112786
0.00122767
0.00135263
0.0014696
0.00146969
0.00146974
0.00146976
0.00146975
0.00146973
0.0014697
0.00146968
0.00146967
0.00146966
0.00146967
0.00146968
0.00146967
0.00127296
0.00110177
0.000966443
0.000858631
0.000771447
0.000700026
0.000640731
0.000590794
0.000548547
0.000512867
0.000481607
0.00046156
0.000428739
0.00040223
0.00034943
0.000232635
2.9782e-05
4.14442e-05
2.06089e-05
2.25202e-05
6.06199e-05
8.40024e-05
7.47081e-05
0.000112883
9.88211e-05
0.000136904
0.000104665
1.92768e-05
0.000150564
0.000450047
0.000821267
0.00112525
0.00131275
0.00140656
0.00144626
0.00146086
0.00146565
0.0014671
0.00146755
0.00146773
0.00146784
0.00146795
0.00145364
0.00139095
0.001332
0.00127723
0.00122586
0.00117771
0.00113265
0.00109052
0.00105117
0.0010144
0.000980053
0.000947955
0.000917964
0.000889943
0.000863769
0.000839332
0.00081653
0.000795274
0.000775485
0.000757094
0.000740041
0.000724274
0.000709751
0.000696434
0.000684295
0.00067331
0.000663464
0.000654748
0.000647162
0.00064071
0.000635406
0.000631273
0.000628339
0.000626646
0.000626247
0.000627206
0.000629603
0.000633536
0.000639122
0.000646502
0.000655847
0.000667363
0.000681301
0.000697968
0.000717742
0.000741093
0.000768604
0.000801041
0.000839387
0.000884939
0.000939438
0.00100527
0.0010858
0.00118577
0.00131327
0.00146953
0.00146965
0.00146972
0.00146976
0.00146976
0.00146975
0.00146972
0.00146969
0.00146965
0.00146962
0.00146958
0.00146954
0.00146949
0.00123859
0.00106058
0.000922984
0.00081487
0.000728309
0.000657889
0.000599593
0.000550537
0.000508896
0.000473384
0.000442118
0.000420787
0.000386638
0.000365035
0.000311431
0.000211664
3.31775e-05
4.65732e-05
2.07566e-05
2.22839e-05
7.19258e-05
9.1597e-05
8.99635e-05
0.000134126
0.000122407
0.000180651
0.000136966
1.92752e-05
0.00015061
0.000450188
0.000821481
0.00112546
0.00131291
0.00140668
0.00144635
0.00146095
0.00146573
0.00146718
0.00146762
0.0014678
0.00146792
0.00146803
0.00141077
0.00135237
0.00129775
0.00124644
0.00119805
0.0011525
0.00110968
0.00106949
0.00103178
0.000996417
0.000963257
0.000932168
0.000903028
0.00087572
0.000850139
0.000826188
0.000803777
0.000782827
0.000763268
0.000745037
0.00072808
0.00071235
0.000697807
0.000684416
0.000672151
0.000660989
0.000650916
0.000641924
0.00063401
0.00062718
0.000621444
0.000616822
0.000613342
0.000611041
0.000609967
0.00061018
0.000611754
0.00061478
0.000619366
0.000625644
0.000633775
0.000643952
0.000656413
0.00067145
0.000689422
0.000710777
0.000736083
0.000766076
0.000801712
0.000844257
0.000895431
0.00095763
0.00103432
0.00113065
0.00125471
0.00142051
0.00146954
0.00146963
0.00146968
0.00146969
0.00146968
0.00146964
0.00146959
0.00146953
0.00146946
0.00146939
0.00146931
0.00141497
0.00117812
0.00100232
0.000868416
0.000763845
0.000680446
0.000612725
0.00055662
0.000509329
0.000468962
0.000434215
0.000403653
0.000381458
0.000347857
0.00032995
0.000277444
0.000193232
3.65778e-05
5.18376e-05
2.08343e-05
2.2097e-05
8.38192e-05
9.97841e-05
0.000107894
0.000157312
0.000154986
0.000249568
0.000191406
1.92733e-05
0.000150655
0.00045033
0.000821696
0.00112567
0.00131309
0.00140681
0.00144646
0.00146104
0.00146581
0.00146726
0.00146771
0.00146789
0.001468
0.00142431
0.00136761
0.00131382
0.00126316
0.00121513
0.00116964
0.00112663
0.00108603
0.00104774
0.00101168
0.000977713
0.000945749
0.000915678
0.000887399
0.000860815
0.000835836
0.000812378
0.000790364
0.000769726
0.0007504
0.00073233
0.000715469
0.000699774
0.000685207
0.000671738
0.00065934
0.000647993
0.000637684
0.000628403
0.000620149
0.000612925
0.000606741
0.000601613
0.000597567
0.000594635
0.000592862
0.000592301
0.00059302
0.000595101
0.000598645
0.000603771
0.000610627
0.000619393
0.000630287
0.000643578
0.000659601
0.000678767
0.000701607
0.000728799
0.000761226
0.000800055
0.00084687
0.000903876
0.000974257
0.00106284
0.00117673
0.00132916
0.00146933
0.00146946
0.00146953
0.00146954
0.00146952
0.00146947
0.0014694
0.00146931
0.00146921
0.0014691
0.00146898
0.00131475
0.00109273
0.000928947
0.000804518
0.000707102
0.000629177
0.00056567
0.000512853
0.000468065
0.000429591
0.00039621
0.000366972
0.000344382
0.000312666
0.000297338
0.000247392
0.000176922
3.99131e-05
5.72049e-05
2.08695e-05
2.19515e-05
9.60304e-05
0.000107887
0.000126233
0.000178503
0.000197958
0.000354937
0.000300738
1.92713e-05
0.000150701
0.000450473
0.000821913
0.00112589
0.00131326
0.00140695
0.00144656
0.00146113
0.00146591
0.00146735
0.0014678
0.00146797
0.00143106
0.00137713
0.00132499
0.00127557
0.00122848
0.00118361
0.00114092
0.00110037
0.00106192
0.0010255
0.000991039
0.000958462
0.000927685
0.000898627
0.000871208
0.000845347
0.000820971
0.000798008
0.000776393
0.000756066
0.000736973
0.000719065
0.000702299
0.000686636
0.000672042
0.000658489
0.000645953
0.000634414
0.000623861
0.000614284
0.00060568
0.000598052
0.000591407
0.000585761
0.000581134
0.000577556
0.000575066
0.000573712
0.000573554
0.000574666
0.000577138
0.000581077
0.000586617
0.000593919
0.000603181
0.000614644
0.000628608
0.00064544
0.000665615
0.000689734
0.000718571
0.000753146
0.000794823
0.000845471
0.000907727
0.000985472
0.00108439
0.00121326
0.00139078
0.00146918
0.00146927
0.0014693
0.00146928
0.00146922
0.00146913
0.00146901
0.00146887
0.00146873
0.00144308
0.0011802
0.00098816
0.000844774
0.000734324
0.000646822
0.000576116
0.000517984
0.000469281
0.000427598
0.000391516
0.000360008
0.000332497
0.000309995
0.00028098
0.00026724
0.000220946
0.000162348
4.31131e-05
6.25722e-05
2.08848e-05
2.1819e-05
0.000108573
0.000114725
0.000140699
0.000191147
0.00024135
0.000445113
0.000589231
1.9269e-05
0.000150747
0.000450614
0.00082213
0.00112611
0.00131344
0.00140709
0.00144668
0.00146123
0.001466
0.00146745
0.00146789
0.00143083
0.00138044
0.00133085
0.00128334
0.00123776
0.00119405
0.00115219
0.00111216
0.00107397
0.00103758
0.00100295
0.000970055
0.000938828
0.000909215
0.000881153
0.000854581
0.000829435
0.000805656
0.000783184
0.000761964
0.000741946
0.000723084
0.000705334
0.000688659
0.000673025
0.000658401
0.00064476
0.00063208
0.000620346
0.000609542
0.000599663
0.000590703
0.000582664
0.000575552
0.000569379
0.000564164
0.000559932
0.000556716
0.000554559
0.000553513
0.000553643
0.000555027
0.000557761
0.000561963
0.000567773
0.000575366
0.000584952
0.000596789
0.0006112
0.000628589
0.000649466
0.000674482
0.000704478
0.000740558
0.000784197
0.000837398
0.000902929
0.000984654
0.00108738
0.00122004
0.00140294
0.00146889
0.00146895
0.00146894
0.00146888
0.00146877
0.00146863
0.00146846
0.00146828
0.00123182
0.00102938
0.000874982
0.000755905
0.000661672
0.00058552
0.000522998
0.000470925
0.000426815
0.000388653
0.000355317
0.000326026
0.000300459
0.000278512
0.000252556
0.000239597
0.000197711
0.000149193
4.61076e-05
6.76649e-05
2.09023e-05
2.17284e-05
0.00011911
0.000119151
0.000147056
0.000190895
0.000255206
0.000396698
0.000870055
1.92665e-05
0.000150793
0.000450756
0.000822347
0.00112633
0.00131363
0.00140723
0.0014468
0.00146134
0.0014661
0.00146755
0.00142371
0.00137741
0.00133115
0.00128623
0.00124274
0.00120071
0.00116016
0.00112112
0.0010836
0.00104763
0.00101319
0.000980289
0.00094889
0.000918966
0.000890479
0.000863386
0.00083764
0.000813194
0.000789998
0.000768008
0.000747176
0.000727461
0.000708824
0.000691229
0.000674641
0.000659032
0.000644373
0.00063064
0.000617814
0.000605879
0.000594823
0.000584638
0.000575319
0.000566866
0.000559284
0.000552583
0.000546778
0.00054189
0.000537948
0.000534986
0.000533051
0.000532198
0.000532494
0.000534022
0.000536883
0.000541197
0.000547113
0.00055481
0.000564503
0.000576464
0.000591026
0.000608602
0.000629714
0.00065502
0.000685362
0.000721826
0.000765815
0.000819136
0.000884042
0.000963051
0.00105858
0.00117608
0.00132781
0.00146844
0.00146847
0.00146842
0.00146832
0.00146817
0.00140084
0.0012055
0.00102935
0.00088245
0.000763939
0.000668327
0.000590206
0.00052553
0.000471386
0.000425579
0.00038624
0.00035179
0.000321394
0.0002945
0.000270968
0.000249987
0.000227097
0.00021434
0.000177301
0.000137195
4.88319e-05
7.20888e-05
2.09502e-05
2.19683e-05
0.000130481
0.000120029
0.000145632
0.00018017
0.00023405
0.000305615
0.000468377
1.92638e-05
0.000150838
0.000450898
0.000822565
0.00112656
0.00131382
0.00140738
0.00144692
0.00146145
0.00145022
0.00141009
0.00136821
0.0013259
0.00128418
0.00124333
0.00120347
0.00116469
0.00112706
0.00109062
0.00105544
0.00102154
0.00098895
0.000957668
0.000927694
0.000899015
0.000871609
0.000845448
0.0008205
0.000796731
0.000774102
0.000752579
0.000732124
0.000712703
0.000694285
0.000676837
0.000660332
0.000644743
0.000630045
0.000616218
0.000603243
0.000591107
0.000579797
0.000569305
0.000559627
0.000550762
0.000542713
0.000535487
0.000529095
0.000523557
0.000518893
0.000515136
0.000512321
0.000510495
0.000509717
0.000510054
0.000511591
0.000514429
0.00051869
0.000524521
0.000532097
0.000541639
0.000553408
0.000567728
0.000584993
0.000605693
0.000630427
0.000659936
0.000695117
0.000737028
0.000786814
0.000845505
0.00091349
0.000990203
0.00107608
0.00116826
0.0012508
0.00129188
0.00126846
0.00119449
0.00108896
0.000970855
0.000854964
0.000750811
0.000661508
0.000586166
0.000522591
0.000468621
0.00042248
0.000382765
0.000348143
0.000317413
0.00029
0.000265546
0.000244048
0.000224343
0.000204306
0.000191421
0.000159371
0.000126139
5.12375e-05
7.6309e-05
2.09391e-05
2.21263e-05
0.000160544
0.000120259
0.000141193
0.000165586
0.00020283
0.000241421
0.000298152
1.92609e-05
0.000150883
0.000451038
0.000822782
0.00112678
0.001314
0.00140753
0.00144704
0.00142566
0.00139062
0.00135342
0.0013154
0.00127733
0.00123958
0.00120233
0.00116572
0.00112988
0.00109491
0.00106087
0.00102784
0.000995867
0.00096499
0.000935231
0.000906601
0.000879101
0.000852723
0.000827452
0.000803269
0.000780149
0.000758065
0.000736991
0.000716899
0.000697762
0.000679553
0.000662246
0.000645817
0.000630244
0.000615504
0.00060158
0.000588455
0.000576117
0.000564554
0.000553758
0.000543725
0.000534453
0.000525942
0.000518198
0.00051123
0.000505052
0.000499682
0.000495144
0.000491468
0.000488694
0.000486867
0.000486044
0.000486292
0.000487695
0.000490349
0.000494372
0.000499901
0.000507107
0.000516188
0.000527384
0.000540978
0.000557311
0.000576777
0.000599834
0.000626986
0.000658745
0.000695532
0.000737478
0.000784133
0.00083409
0.000884634
0.000931518
0.000968771
0.000983939
0.000969141
0.000925014
0.000859946
0.000785435
0.000708934
0.00063606
0.000569882
0.000511428
0.000460392
0.000415924
0.000377075
0.000343038
0.000312904
0.000285768
0.000261265
0.000239194
0.000219672
0.000201418
0.000183894
0.000170805
0.00014362
0.000115897
5.32767e-05
7.97923e-05
2.11047e-05
2.22396e-05
0.000173903
0.000118674
0.000132137
0.000151077
0.00017551
0.000201648
0.000223451
1.92578e-05
0.000150928
0.000451179
0.000822999
0.00112701
0.0013142
0.00140767
0.0013954
0.00136602
0.00133378
0.00130027
0.00126611
0.00123175
0.00119742
0.00116332
0.00112961
0.00109641
0.00106383
0.00103198
0.00100092
0.000970724
0.000941439
0.000913099
0.000885728
0.000859337
0.000833929
0.000809501
0.000786044
0.000763542
0.000741978
0.000721334
0.000701589
0.000682721
0.000664711
0.000647537
0.000631178
0.000615615
0.000600831
0.000586808
0.000573533
0.000560995
0.000549182
0.000538087
0.000527706
0.000518034
0.000509071
0.000500822
0.000493293
0.000486492
0.000480436
0.000475141
0.000470633
0.000466942
0.000464105
0.000462166
0.000461178
0.000461207
0.000462327
0.000464628
0.000468215
0.000473212
0.000479767
0.000488041
0.000498228
0.000510546
0.00052523
0.000542524
0.000562651
0.00058577
0.000611869
0.000640627
0.00067124
0.000702246
0.000731463
0.000755979
0.000771729
0.000774673
0.00076191
0.000732715
0.000691092
0.000641588
0.000589065
0.00053763
0.000489157
0.000444598
0.00040423
0.000368008
0.000335622
0.00030671
0.000280708
0.000256951
0.000235214
0.000215409
0.000197765
0.000181019
0.000165594
0.000152456
0.000129754
0.000106379
5.49276e-05
8.11455e-05
2.13819e-05
2.28068e-05
0.000186452
0.000113457
0.000122573
0.000138334
0.00015573
0.000176662
0.000184123
1.92544e-05
0.000150973
0.000451318
0.000823216
0.00112723
0.00131436
0.00135983
0.00133688
0.00130986
0.00128117
0.00125105
0.00122022
0.00118903
0.00115767
0.00112634
0.00109518
0.00106433
0.00103392
0.00100404
0.000974781
0.000946215
0.000918398
0.000891374
0.000865173
0.000839818
0.000815321
0.000791686
0.000768914
0.000746997
0.000725926
0.000705689
0.000686272
0.000667661
0.000649838
0.000632787
0.000616492
0.000600936
0.000586103
0.000571982
0.000558559
0.000545823
0.000533766
0.000522379
0.000511657
0.000501597
0.000492197
0.000483459
0.000475386
0.000467986
0.000461269
0.00045525
0.000449945
0.000445379
0.00044158
0.000438581
0.000436424
0.000435156
0.000434834
0.000435524
0.000437301
0.000440252
0.000444479
0.000450087
0.000457197
0.000465928
0.000476402
0.000488711
0.000502912
0.000518951
0.000536612
0.000555434
0.000574616
0.000592977
0.000608993
0.000620985
0.000626866
0.000625157
0.000614638
0.000593977
0.000564986
0.0005302
0.000492939
0.000455496
0.00041942
0.000385606
0.000354117
0.00032499
0.000298258
0.00027389
0.000251613
0.000230958
0.0002118
0.0001941
0.000178207
0.000162953
0.00014919
0.000136318
0.000117519
9.7512e-05
5.6209e-05
7.9831e-05
2.18362e-05
2.35433e-05
0.000203488
0.000108139
0.000114511
0.000128364
0.000142192
0.000160856
0.000160881
1.92509e-05
0.000151018
0.000451456
0.000823431
0.00112746
0.00131445
0.00130355
0.00128202
0.00125845
0.00123266
0.00120545
0.00117749
0.00114902
0.00112025
0.00109133
0.00106243
0.00103368
0.00100521
0.000977118
0.000949495
0.000922418
0.000895949
0.000870138
0.000845022
0.00082063
0.000796982
0.00077409
0.000751959
0.000730592
0.000709985
0.000690132
0.000671025
0.000652654
0.000635007
0.00061807
0.000601831
0.000586277
0.000571396
0.000557176
0.000543607
0.000530679
0.000518384
0.000506714
0.000495664
0.000485229
0.000475408
0.000466201
0.000457609
0.000449636
0.00044229
0.000435581
0.000429523
0.000424131
0.000419426
0.000415434
0.000412183
0.00040971
0.000408054
0.000407258
0.00040738
0.000408473
0.000410599
0.000413825
0.000418216
0.000423826
0.000430693
0.000438825
0.000448172
0.000458594
0.000469819
0.000481401
0.000492696
0.000502867
0.000510916
0.000515869
0.00051693
0.0005134
0.000504147
0.000488913
0.000468152
0.000443244
0.000416063
0.000387986
0.000360585
0.000334502
0.000309918
0.00028673
0.000264907
0.000244527
0.00022556
0.000207706
0.000190913
0.000175132
0.000160858
0.000147
0.000134547
0.000122274
0.000106659
8.92816e-05
5.7178e-05
7.54347e-05
2.25591e-05
2.45173e-05
0.000209297
0.000102871
0.000108048
0.000120928
0.0001335
0.000151733
0.000147385
1.92471e-05
0.000151062
0.000451593
0.000823645
0.00112762
0.00126762
0.00125111
0.00123178
0.00121121
0.00118786
0.00116317
0.00113767
0.00111156
0.00108503
0.00105824
0.00103134
0.00100447
0.000977734
0.000951252
0.000925113
0.000899392
0.000874157
0.00084946
0.000825345
0.000801845
0.000778985
0.000756783
0.000735252
0.000714399
0.000694226
0.000674733
0.000655916
0.000637769
0.000620285
0.000603453
0.000587265
0.00057171
0.000556778
0.000542461
0.00052875
0.000515636
0.000503111
0.000491168
0.000479803
0.000469011
0.000458788
0.000449134
0.000440048
0.000431534
0.000423595
0.000416239
0.000409473
0.00040331
0.000397763
0.000392851
0.000388592
0.000385012
0.000382139
0.00038
0.000378628
0.000378061
0.000378331
0.000379474
0.000381513
0.000384465
0.00038832
0.000393037
0.000398524
0.000404616
0.000411056
0.000417484
0.000423436
0.000428334
0.000431448
0.000432625
0.000431652
0.000427202
0.000418842
0.000406951
0.00039165
0.00037362
0.000353654
0.000332623
0.000311496
0.000290986
0.000271523
0.000253025
0.000235354
0.00021846
0.000202416
0.000187061
0.000172406
0.000158361
0.000145563
0.000132947
0.000121622
0.000110111
9.69007e-05
8.17639e-05
5.79433e-05
6.79301e-05
2.37117e-05
2.58207e-05
0.000194824
9.81493e-05
0.000103132
0.000115938
0.000129131
0.000148328
0.000140905
1.92431e-05
0.000151105
0.000451728
0.000823854
0.00112766
0.00121868
0.00120307
0.00118611
0.00116768
0.00114643
0.00112392
0.00110054
0.00107648
0.00105192
0.001027
0.00100187
0.000976666
0.000951496
0.000926466
0.000901669
0.000877182
0.000853072
0.000829397
0.0008062
0.000783522
0.00076139
0.000739829
0.000718856
0.000698481
0.000678713
0.000659555
0.000641008
0.000623069
0.000605735
0.000588999
0.000572855
0.000557296
0.000542314
0.000527902
0.000514053
0.000500759
0.000488015
0.000475812
0.000464147
0.000453015
0.000442412
0.000432336
0.000422787
0.000413765
0.000405272
0.000397312
0.000389891
0.000383015
0.000376693
0.000370939
0.000365764
0.000361184
0.000357215
0.000353875
0.000351184
0.000349158
0.000347816
0.000347169
0.000347222
0.00034796
0.000349353
0.000351341
0.000353826
0.000356652
0.00035961
0.000362435
0.000364812
0.000366171
0.000366623
0.000365916
0.000363533
0.000358654
0.000351507
0.000342087
0.000330488
0.000317012
0.000302133
0.00028655
0.000270403
0.00025422
0.000238605
0.000223681
0.000209359
0.000195462
0.000181994
0.000168855
0.000156122
0.00014364
0.000132156
0.000120642
0.000110336
9.9551e-05