/*--------------------------------*- C++ -*----------------------------------*\
| =========                 |                                                 |
| \\      /  F ield         | OpenFOAM: The Open Source CFD Toolbox           |
|  \\    /   O peration     | Version:  v2106                                 |
|   \\  /    A nd           | Website:  www.openfoam.com                      |
|    \\/     M anipulation  |                                                 |
\*---------------------------------------------------------------------------*/
FoamFile
{
    version     2.0;
    format      ascii;
    arch        "LSB;label=32;scalar=64";
    class       volScalarField;
    location    "0.8";
    object      omega;
}
// * * * * * * * * * * * * * * * * * * * * * * * * * * * * * * * * * * * * * //

dimensions      [0 0 -1 0 0 0 0];

internalField   nonuniform List<scalar> 
29678
(
7.08339
1.30287
0.462939
0.257838
0.189261
0.162603
0.151912
0.147813
0.146371
0.145915
0.145787
0.145758
0.145755
0.14576
0.145766
0.145773
0.145781
0.145789
0.145797
0.145806
0.145816
0.145826
0.145837
0.145848
0.14586
0.145872
0.145884
0.145897
0.145911
0.145924
0.145939
0.145953
0.145968
0.145983
0.145998
0.146014
0.14603
0.146045
0.146061
0.146076
0.146091
0.146106
0.14612
0.146134
0.146147
0.146159
0.146169
0.146179
0.146187
0.146193
0.146198
0.1462
0.146201
0.1462
0.146196
0.14619
0.146182
0.146171
0.146158
0.146143
0.146125
0.146105
0.146083
0.14606
0.146037
0.146013
0.145989
0.145965
0.145941
0.145918
0.145895
0.145873
0.145853
0.145835
0.14582
0.145808
0.145799
0.145795
0.145795
0.145801
0.145812
0.14583
0.145854
0.145886
0.145925
0.145973
0.14603
0.146098
0.146178
0.14627
0.146376
0.146497
0.146637
0.14683
0.147293
0.1492
0.157879
0.184476
0.300865
1.29351
0.931015
0.898755
0.560165
0.425672
0.316427
0.268468
0.277655
0.297263
0.307355
0.35521
7.08332
1.30269
0.462873
0.257811
0.18925
0.1626
0.151913
0.147817
0.146378
0.145924
0.145798
0.145771
0.14577
0.145777
0.145786
0.145795
0.145806
0.145817
0.145829
0.145841
0.145855
0.145869
0.145883
0.145898
0.145914
0.145931
0.145948
0.145966
0.145985
0.146005
0.146025
0.146046
0.146067
0.146089
0.146112
0.146134
0.146157
0.14618
0.146203
0.146225
0.146247
0.146268
0.146289
0.146308
0.146326
0.146343
0.146358
0.14637
0.146381
0.146389
0.146394
0.146397
0.146396
0.146393
0.146386
0.146375
0.146362
0.146345
0.146324
0.1463
0.146273
0.146244
0.146212
0.14618
0.146147
0.146115
0.146082
0.146049
0.146017
0.145986
0.145957
0.145929
0.145903
0.145881
0.145861
0.145846
0.145835
0.145829
0.145828
0.145835
0.145848
0.145869
0.145899
0.145937
0.145985
0.146044
0.146115
0.146199
0.146299
0.146413
0.146545
0.146695
0.146866
0.147075
0.147439
0.14864
0.15441
0.175576
0.259191
0.952879
0.839756
0.809975
0.552482
0.478573
0.337218
0.308416
0.2881
0.28121
0.242223
0.196266
7.08341
1.3024
0.462769
0.257768
0.189231
0.162594
0.151913
0.147821
0.146384
0.145931
0.145807
0.145781
0.145782
0.14579
0.145801
0.145813
0.145825
0.145839
0.145853
0.145868
0.145884
0.145901
0.145919
0.145938
0.145958
0.145979
0.146001
0.146023
0.146047
0.146072
0.146098
0.146124
0.146151
0.146178
0.146206
0.146235
0.146263
0.146292
0.14632
0.146347
0.146375
0.146401
0.146426
0.146449
0.146471
0.146492
0.14651
0.146525
0.146538
0.146547
0.146554
0.146557
0.146556
0.146552
0.146543
0.146531
0.146514
0.146493
0.146468
0.146439
0.146406
0.14637
0.146331
0.146291
0.146251
0.14621
0.146169
0.146128
0.146088
0.146049
0.146012
0.145978
0.145947
0.14592
0.145896
0.145877
0.145864
0.145856
0.145855
0.145862
0.145877
0.145901
0.145935
0.145979
0.146034
0.146102
0.146185
0.146284
0.1464
0.146533
0.146686
0.14686
0.147058
0.147286
0.147604
0.148368
0.152121
0.168247
0.233079
0.762146
0.693049
0.727666
0.490716
0.484652
0.309624
0.317687
0.282461
0.27837
0.241657
0.196104
7.08345
1.30208
0.462649
0.257717
0.189209
0.162585
0.151912
0.147823
0.146388
0.145937
0.145813
0.145788
0.14579
0.145799
0.145811
0.145824
0.145838
0.145852
0.145868
0.145885
0.145902
0.145921
0.145941
0.145961
0.145983
0.146006
0.14603
0.146055
0.146081
0.146108
0.146135
0.146163
0.146192
0.146221
0.146251
0.146281
0.146311
0.146341
0.14637
0.146399
0.146428
0.146455
0.146482
0.146507
0.14653
0.146551
0.14657
0.146586
0.1466
0.14661
0.146618
0.146621
0.146621
0.146617
0.146608
0.146596
0.146579
0.146558
0.146532
0.146503
0.146469
0.146432
0.146393
0.146352
0.146311
0.146268
0.146225
0.146181
0.146137
0.146094
0.146054
0.146016
0.145982
0.145952
0.145926
0.145906
0.145891
0.145883
0.145882
0.145889
0.145906
0.145932
0.145969
0.146018
0.146079
0.146154
0.146246
0.146354
0.146479
0.146624
0.146789
0.146975
0.147185
0.147423
0.147718
0.148259
0.150669
0.162964
0.215252
0.601525
0.574161
0.588297
0.449645
0.447473
0.299871
0.322595
0.278516
0.274687
0.238836
0.20109
7.08343
1.30174
0.462523
0.257663
0.189185
0.162576
0.15191
0.147825
0.146392
0.145941
0.145818
0.145794
0.145796
0.145806
0.145818
0.145831
0.145845
0.145861
0.145877
0.145894
0.145913
0.145932
0.145953
0.145974
0.145997
0.14602
0.146045
0.14607
0.146097
0.146124
0.146152
0.14618
0.14621
0.146239
0.146269
0.1463
0.14633
0.14636
0.14639
0.14642
0.146449
0.146477
0.146504
0.146529
0.146553
0.146575
0.146594
0.146611
0.146626
0.146637
0.146645
0.146649
0.14665
0.146646
0.146639
0.146627
0.146611
0.14659
0.146565
0.146537
0.146504
0.146468
0.146429
0.146389
0.146348
0.146305
0.146261
0.146216
0.146172
0.146129
0.146087
0.146048
0.146013
0.145982
0.145956
0.145935
0.14592
0.145913
0.145913
0.145922
0.14594
0.145969
0.146009
0.146061
0.146128
0.146209
0.146306
0.146421
0.146553
0.146705
0.146877
0.147071
0.14729
0.147536
0.147827
0.148267
0.149857
0.158666
0.199663
0.492973
0.47377
0.485515
0.421837
0.404173
0.284597
0.310434
0.266797
0.267326
0.234659
0.200906
7.08334
1.3014
0.462395
0.25761
0.189162
0.162567
0.151909
0.147827
0.146396
0.145946
0.145823
0.145799
0.145801
0.145811
0.145824
0.145837
0.145852
0.145867
0.145884
0.145901
0.14592
0.14594
0.14596
0.145982
0.146005
0.146029
0.146054
0.146079
0.146106
0.146133
0.146162
0.14619
0.14622
0.14625
0.14628
0.146311
0.146342
0.146373
0.146403
0.146433
0.146463
0.146491
0.146519
0.146545
0.14657
0.146592
0.146613
0.146631
0.146646
0.146658
0.146667
0.146673
0.146674
0.146672
0.146666
0.146655
0.14664
0.14662
0.146596
0.146568
0.146536
0.146501
0.146463
0.146424
0.146383
0.14634
0.146296
0.146251
0.146206
0.146163
0.146121
0.146081
0.146046
0.146015
0.145989
0.145969
0.145955
0.145949
0.14595
0.145961
0.145981
0.146012
0.146056
0.146113
0.146184
0.14627
0.146373
0.146493
0.146632
0.146791
0.146971
0.147175
0.147403
0.147661
0.147958
0.14835
0.149457
0.155478
0.186265
0.418201
0.403514
0.419377
0.394444
0.355796
0.266178
0.294389
0.254851
0.259343
0.230878
0.201242
7.08318
1.30105
0.462269
0.257557
0.189139
0.162559
0.151908
0.14783
0.1464
0.145951
0.145829
0.145805
0.145807
0.145817
0.145829
0.145843
0.145858
0.145873
0.14589
0.145908
0.145927
0.145946
0.145967
0.145989
0.146012
0.146036
0.146061
0.146087
0.146114
0.146142
0.14617
0.146199
0.146229
0.14626
0.146291
0.146322
0.146353
0.146385
0.146416
0.146447
0.146477
0.146506
0.146535
0.146562
0.146588
0.146612
0.146633
0.146652
0.146669
0.146683
0.146693
0.1467
0.146703
0.146702
0.146697
0.146687
0.146673
0.146655
0.146632
0.146605
0.146574
0.146539
0.146503
0.146464
0.146423
0.146381
0.146336
0.146291
0.146246
0.146202
0.14616
0.146121
0.146085
0.146054
0.146028
0.146009
0.145996
0.145991
0.145994
0.146006
0.146029
0.146063
0.146111
0.146173
0.14625
0.146342
0.14645
0.146577
0.146723
0.14689
0.14708
0.147295
0.147536
0.147809
0.14812
0.148498
0.149306
0.153418
0.176961
0.366535
0.356423
0.380532
0.374826
0.316669
0.249472
0.276049
0.241209
0.248127
0.223874
0.198905
7.08294
1.30071
0.462143
0.257505
0.189117
0.162551
0.151908
0.147834
0.146406
0.145957
0.145835
0.145811
0.145813
0.145823
0.145836
0.14585
0.145864
0.14588
0.145897
0.145915
0.145933
0.145953
0.145974
0.145996
0.14602
0.146044
0.146069
0.146095
0.146122
0.14615
0.146179
0.146209
0.146239
0.14627
0.146302
0.146334
0.146366
0.146398
0.14643
0.146462
0.146493
0.146524
0.146553
0.146582
0.146608
0.146634
0.146657
0.146677
0.146696
0.146711
0.146723
0.146731
0.146736
0.146737
0.146733
0.146725
0.146713
0.146696
0.146674
0.146648
0.146618
0.146585
0.14655
0.146512
0.146472
0.146429
0.146385
0.14634
0.146294
0.14625
0.146208
0.146168
0.146132
0.146101
0.146075
0.146056
0.146043
0.146039
0.146043
0.146058
0.146084
0.146123
0.146176
0.146244
0.146326
0.146423
0.146538
0.146672
0.146827
0.147004
0.147205
0.147434
0.147692
0.147984
0.148316
0.14871
0.149366
0.152332
0.171126
0.330101
0.323816
0.355244
0.363169
0.283611
0.23426
0.257459
0.227983
0.236218
0.215777
0.195867
7.08262
1.30036
0.462018
0.257454
0.189096
0.162545
0.151909
0.147839
0.146412
0.145964
0.145842
0.145818
0.145821
0.145831
0.145843
0.145857
0.145872
0.145887
0.145904
0.145922
0.145941
0.145961
0.145982
0.146004
0.146028
0.146052
0.146078
0.146104
0.146132
0.14616
0.146189
0.14622
0.14625
0.146282
0.146314
0.146347
0.14638
0.146413
0.146446
0.146479
0.146511
0.146543
0.146574
0.146604
0.146632
0.146659
0.146684
0.146706
0.146726
0.146743
0.146757
0.146768
0.146774
0.146777
0.146775
0.146769
0.146759
0.146744
0.146724
0.146699
0.146671
0.146639
0.146605
0.146568
0.146528
0.146486
0.146442
0.146397
0.146352
0.146307
0.146265
0.146225
0.146189
0.146157
0.146131
0.146111
0.146099
0.146095
0.146101
0.146119
0.146149
0.146193
0.146252
0.146324
0.146412
0.146515
0.146637
0.14678
0.146945
0.147134
0.147349
0.147594
0.147872
0.148189
0.14855
0.14898
0.149571
0.151875
0.16747
0.304043
0.299836
0.336567
0.358556
0.257378
0.221843
0.240449
0.215974
0.224227
0.206932
0.191754
7.08223
1.30001
0.461894
0.257404
0.189076
0.162539
0.151911
0.147844
0.146419
0.145971
0.14585
0.145826
0.145828
0.145838
0.145851
0.145865
0.14588
0.145895
0.145912
0.14593
0.145949
0.14597
0.145991
0.146013
0.146037
0.146062
0.146087
0.146114
0.146142
0.146171
0.146201
0.146232
0.146263
0.146295
0.146328
0.146362
0.146396
0.14643
0.146464
0.146498
0.146532
0.146565
0.146598
0.146629
0.146659
0.146688
0.146715
0.146739
0.146761
0.146781
0.146797
0.14681
0.146819
0.146824
0.146824
0.146821
0.146812
0.146799
0.146781
0.146758
0.146732
0.146702
0.14667
0.146633
0.146594
0.146552
0.146509
0.146464
0.146419
0.146374
0.146331
0.146291
0.146255
0.146223
0.146197
0.146177
0.146164
0.146162
0.14617
0.146191
0.146225
0.146274
0.146337
0.146414
0.146507
0.146618
0.146749
0.146901
0.147078
0.14728
0.147512
0.147777
0.14808
0.14843
0.148824
0.149308
0.149883
0.151818
0.16519
0.285066
0.281341
0.321334
0.35842
0.237732
0.21214
0.225353
0.205428
0.212823
0.197803
0.186846
7.08177
1.29966
0.461772
0.257355
0.189057
0.162535
0.151913
0.14785
0.146426
0.14598
0.145858
0.145834
0.145837
0.145847
0.14586
0.145874
0.145888
0.145904
0.145921
0.14594
0.145959
0.145979
0.146001
0.146023
0.146047
0.146072
0.146098
0.146125
0.146154
0.146183
0.146214
0.146245
0.146277
0.14631
0.146344
0.146378
0.146413
0.146449
0.146484
0.14652
0.146555
0.14659
0.146624
0.146658
0.14669
0.146721
0.14675
0.146777
0.146801
0.146823
0.146842
0.146857
0.146869
0.146877
0.14688
0.146879
0.146873
0.146863
0.146847
0.146827
0.146803
0.146775
0.146744
0.146709
0.146671
0.14663
0.146586
0.146542
0.146497
0.146452
0.146409
0.146368
0.146332
0.1463
0.146273
0.146253
0.146242
0.146241
0.146251
0.146275
0.146313
0.146366
0.146433
0.146515
0.146615
0.146733
0.146873
0.147037
0.147227
0.147446
0.147697
0.147986
0.148321
0.148708
0.149146
0.1497
0.150291
0.152052
0.163861
0.27106
0.266678
0.308055
0.360841
0.223892
0.204669
0.212207
0.196263
0.202106
0.18788
0.180841
7.08123
1.29932
0.461651
0.257307
0.189039
0.162531
0.151917
0.147857
0.146435
0.145989
0.145867
0.145844
0.145846
0.145857
0.145869
0.145883
0.145898
0.145914
0.145931
0.14595
0.145969
0.14599
0.146011
0.146034
0.146058
0.146084
0.14611
0.146138
0.146167
0.146197
0.146228
0.14626
0.146293
0.146327
0.146361
0.146397
0.146433
0.14647
0.146507
0.146544
0.146581
0.146617
0.146654
0.146689
0.146724
0.146757
0.146789
0.146818
0.146846
0.146871
0.146893
0.146911
0.146926
0.146937
0.146944
0.146946
0.146944
0.146936
0.146923
0.146906
0.146885
0.14686
0.146831
0.146797
0.14676
0.14672
0.146677
0.146633
0.146588
0.146543
0.146499
0.146458
0.146421
0.146388
0.146362
0.146342
0.146332
0.146333
0.146346
0.146373
0.146414
0.146469
0.146541
0.146628
0.146735
0.146862
0.147013
0.147189
0.147395
0.147632
0.147906
0.148225
0.148598
0.149031
0.149523
0.150163
0.150795
0.152535
0.163261
0.26069
0.254938
0.296163
0.36477
0.214465
0.198503
0.200936
0.187807
0.191308
0.178215
0.17326
7.08061
1.29897
0.461531
0.25726
0.189022
0.162528
0.151921
0.147865
0.146444
0.145999
0.145878
0.145854
0.145857
0.145867
0.14588
0.145893
0.145909
0.145925
0.145942
0.14596
0.14598
0.146001
0.146023
0.146046
0.146071
0.146096
0.146123
0.146151
0.146181
0.146211
0.146243
0.146276
0.14631
0.146345
0.146381
0.146417
0.146455
0.146493
0.146531
0.14657
0.146609
0.146648
0.146687
0.146725
0.146762
0.146798
0.146833
0.146865
0.146896
0.146925
0.14695
0.146972
0.146991
0.147006
0.147017
0.147023
0.147024
0.14702
0.147011
0.146997
0.146979
0.146957
0.146931
0.146899
0.146864
0.146825
0.146783
0.146739
0.146694
0.146649
0.146605
0.146563
0.146525
0.146492
0.146466
0.146447
0.146438
0.146441
0.146456
0.146485
0.146528
0.146587
0.146663
0.146756
0.14687
0.147007
0.147169
0.14736
0.147583
0.147842
0.148144
0.148499
0.148917
0.149406
0.149965
0.150713
0.151408
0.153258
0.163282
0.253111
0.245549
0.285613
0.36995
0.208192
0.193258
0.191604
0.180108
0.180775
0.169744
0.165631
7.07992
1.29863
0.461414
0.257215
0.189005
0.162526
0.151926
0.147873
0.146454
0.146009
0.145888
0.145865
0.145868
0.145878
0.145891
0.145905
0.14592
0.145936
0.145954
0.145972
0.145992
0.146013
0.146035
0.146059
0.146084
0.14611
0.146137
0.146166
0.146196
0.146227
0.14626
0.146293
0.146328
0.146364
0.146402
0.14644
0.146479
0.146518
0.146559
0.146599
0.146641
0.146682
0.146723
0.146764
0.146804
0.146843
0.146881
0.146918
0.146952
0.146984
0.147014
0.147041
0.147064
0.147083
0.147098
0.147109
0.147115
0.147115
0.14711
0.147101
0.147087
0.147069
0.147046
0.147017
0.146984
0.146947
0.146906
0.146863
0.146819
0.146774
0.14673
0.146687
0.146649
0.146616
0.14659
0.146572
0.146564
0.146568
0.146584
0.146615
0.14666
0.146722
0.146801
0.146901
0.147022
0.147169
0.147345
0.147552
0.147796
0.14808
0.148415
0.148813
0.149286
0.149843
0.150487
0.151364
0.152149
0.15423
0.163878
0.247789
0.238096
0.27656
0.376569
0.2042
0.188841
0.183834
0.173846
0.17154
0.163311
0.159272
7.07915
1.29828
0.461297
0.257171
0.18899
0.162524
0.151932
0.147882
0.146465
0.14602
0.1459
0.145876
0.145879
0.14589
0.145902
0.145917
0.145932
0.145948
0.145966
0.145985
0.146005
0.146026
0.146049
0.146073
0.146098
0.146125
0.146152
0.146182
0.146212
0.146244
0.146278
0.146313
0.146349
0.146386
0.146424
0.146464
0.146504
0.146546
0.146588
0.146631
0.146675
0.146719
0.146763
0.146807
0.14685
0.146893
0.146935
0.146975
0.147014
0.147051
0.147086
0.147117
0.147146
0.14717
0.147191
0.147207
0.147218
0.147224
0.147224
0.14722
0.147212
0.147198
0.147179
0.147154
0.147124
0.147089
0.147051
0.14701
0.146966
0.146922
0.146878
0.146835
0.146796
0.146763
0.146737
0.14672
0.146713
0.146717
0.146735
0.146767
0.146814
0.146878
0.146961
0.147067
0.147197
0.147355
0.147544
0.14777
0.148037
0.148352
0.148727
0.149177
0.149716
0.150356
0.151106
0.152139
0.153049
0.155479
0.165044
0.244381
0.232249
0.269116
0.384301
0.202046
0.185035
0.177125
0.169235
0.165076
0.158853
0.154763
7.07831
1.29794
0.461183
0.257128
0.188976
0.162524
0.151938
0.147892
0.146476
0.146032
0.145912
0.145888
0.145892
0.145902
0.145915
0.145929
0.145945
0.145961
0.145979
0.145998
0.146019
0.14604
0.146063
0.146088
0.146113
0.14614
0.146169
0.146199
0.14623
0.146263
0.146297
0.146333
0.14637
0.146409
0.146449
0.14649
0.146532
0.146576
0.146621
0.146666
0.146712
0.146759
0.146806
0.146854
0.146901
0.146948
0.146994
0.147039
0.147083
0.147125
0.147165
0.147203
0.147237
0.147268
0.147295
0.147317
0.147335
0.147347
0.147354
0.147357
0.147355
0.147346
0.147332
0.147312
0.147286
0.147256
0.147221
0.147182
0.147141
0.147098
0.147055
0.147013
0.146974
0.14694
0.146914
0.146897
0.14689
0.146895
0.146913
0.146945
0.146994
0.14706
0.147148
0.14726
0.147399
0.147569
0.147774
0.148021
0.148316
0.148666
0.149087
0.1496
0.15022
0.150962
0.151846
0.153066
0.154149
0.157049
0.166794
0.242539
0.227646
0.262904
0.389961
0.200453
0.181886
0.173207
0.166302
0.161302
0.156194
0.152237
7.07739
1.2976
0.46107
0.257086
0.188962
0.162524
0.151946
0.147903
0.146488
0.146045
0.145925
0.145901
0.145905
0.145915
0.145928
0.145943
0.145958
0.145975
0.145993
0.146013
0.146033
0.146055
0.146078
0.146103
0.146129
0.146157
0.146186
0.146217
0.146249
0.146283
0.146318
0.146355
0.146394
0.146434
0.146475
0.146518
0.146563
0.146609
0.146656
0.146704
0.146753
0.146803
0.146854
0.146905
0.146957
0.147008
0.147059
0.14711
0.147159
0.147207
0.147254
0.147298
0.147339
0.147377
0.147412
0.147442
0.147467
0.147487
0.147502
0.147513
0.147519
0.147518
0.14751
0.147496
0.147477
0.147451
0.147421
0.147386
0.147348
0.147307
0.147266
0.147226
0.147189
0.147155
0.147128
0.14711
0.147102
0.147107
0.147125
0.147158
0.147208
0.147277
0.147369
0.147488
0.147636
0.147819
0.148043
0.148314
0.14864
0.149032
0.14951
0.150097
0.150817
0.151686
0.152736
0.154181
0.155504
0.158999
0.169095
0.241299
0.223855
0.257854
0.398044
0.197842
0.179636
0.171252
0.164908
0.15968
0.15515
0.151334
7.07641
1.29726
0.460959
0.257045
0.18895
0.162525
0.151953
0.147914
0.146501
0.146058
0.145938
0.145915
0.145918
0.145929
0.145942
0.145957
0.145973
0.14599
0.146008
0.146028
0.146049
0.146071
0.146095
0.14612
0.146147
0.146175
0.146205
0.146236
0.146269
0.146304
0.146341
0.146379
0.146419
0.14646
0.146504
0.146549
0.146595
0.146644
0.146693
0.146744
0.146797
0.146851
0.146906
0.146961
0.147017
0.147074
0.147131
0.147187
0.147243
0.147298
0.147352
0.147404
0.147453
0.1475
0.147543
0.147582
0.147617
0.147646
0.147672
0.147692
0.147707
0.147715
0.147717
0.147711
0.147699
0.147681
0.147657
0.147628
0.147595
0.147559
0.147521
0.147484
0.147448
0.147417
0.147391
0.147372
0.147363
0.147365
0.147383
0.147416
0.147468
0.14754
0.147637
0.147762
0.147921
0.148118
0.148362
0.148661
0.149024
0.149466
0.150011
0.15069
0.151531
0.152556
0.153815
0.155535
0.157188
0.161401
0.172003
0.239653
0.221022
0.253624
0.409963
0.198359
0.179168
0.171547
0.165004
0.15983
0.15545
0.151735
7.07535
1.29692
0.46085
0.257006
0.188938
0.162527
0.151964
0.147926
0.146513
0.146071
0.145952
0.145929
0.145933
0.145943
0.145957
0.145972
0.145988
0.146005
0.146024
0.146043
0.146065
0.146088
0.146112
0.146137
0.146165
0.146194
0.146224
0.146257
0.146291
0.146327
0.146364
0.146404
0.146445
0.146489
0.146534
0.146581
0.14663
0.146681
0.146734
0.146788
0.146844
0.146902
0.146961
0.147022
0.147083
0.147146
0.147209
0.147272
0.147335
0.147398
0.14746
0.147521
0.14758
0.147636
0.14769
0.14774
0.147786
0.147827
0.147865
0.147898
0.147924
0.147944
0.147957
0.147963
0.147961
0.147953
0.147938
0.147918
0.147892
0.147863
0.147831
0.147798
0.147766
0.147737
0.147714
0.147696
0.147688
0.14769
0.147705
0.147738
0.14779
0.147865
0.147966
0.148099
0.148268
0.148482
0.148749
0.149079
0.149487
0.149988
0.150613
0.151402
0.152392
0.153612
0.155131
0.15719
0.159291
0.164233
0.175648
0.238786
0.219348
0.251772
0.418439
0.199316
0.179893
0.172942
0.166371
0.161373
0.156899
0.15314
7.07421
1.29658
0.460743
0.256967
0.188928
0.162533
0.151975
0.147937
0.146524
0.146084
0.145966
0.145944
0.145947
0.145959
0.145972
0.145987
0.146003
0.146021
0.14604
0.14606
0.146082
0.146105
0.14613
0.146156
0.146184
0.146213
0.146245
0.146278
0.146313
0.14635
0.146389
0.14643
0.146473
0.146519
0.146566
0.146616
0.146667
0.146721
0.146777
0.146835
0.146895
0.146958
0.147022
0.147087
0.147155
0.147224
0.147294
0.147365
0.147436
0.147508
0.14758
0.147651
0.147721
0.147789
0.147855
0.147918
0.147977
0.148033
0.148085
0.148133
0.148174
0.148209
0.148237
0.148257
0.14827
0.148275
0.148273
0.148265
0.14825
0.148231
0.148208
0.148183
0.148158
0.148134
0.148115
0.1481
0.148094
0.148097
0.148113
0.148146
0.148199
0.148275
0.14838
0.148521
0.148702
0.148933
0.149225
0.149593
0.150052
0.150624
0.151346
0.152268
0.153441
0.154901
0.156745
0.15923
0.161859
0.167513
0.180166
0.239022
0.21873
0.252119
0.42695
0.200326
0.18144
0.175157
0.168526
0.164045
0.15934
0.155396
7.07301
1.29625
0.460638
0.25693
0.188919
0.162549
0.151985
0.147943
0.146535
0.146098
0.145981
0.145959
0.145963
0.145974
0.145988
0.146003
0.14602
0.146038
0.146057
0.146077
0.146099
0.146123
0.146148
0.146175
0.146204
0.146234
0.146266
0.146301
0.146337
0.146375
0.146416
0.146458
0.146503
0.14655
0.1466
0.146652
0.146707
0.146764
0.146823
0.146885
0.14695
0.147017
0.147087
0.147158
0.147232
0.147308
0.147386
0.147466
0.147547
0.147629
0.147712
0.147795
0.147878
0.14796
0.14804
0.148119
0.148194
0.148267
0.148338
0.148403
0.148463
0.148517
0.148564
0.148603
0.148635
0.148658
0.148674
0.148682
0.148684
0.148679
0.14867
0.148657
0.148643
0.148629
0.148617
0.148608
0.148606
0.148613
0.148631
0.148666
0.148721
0.1488
0.148909
0.149058
0.149253
0.149504
0.149825
0.150234
0.150754
0.15141
0.152248
0.15333
0.154729
0.156485
0.158731
0.161675
0.164826
0.171323
0.185581
0.240286
0.219212
0.25481
0.435299
0.201815
0.183884
0.178121
0.171402
0.167209
0.162593
0.158241
7.07174
1.29592
0.460535
0.256895
0.18892
0.162565
0.151989
0.147946
0.146545
0.146111
0.145996
0.145974
0.145979
0.14599
0.146004
0.14602
0.146037
0.146055
0.146074
0.146095
0.146118
0.146142
0.146168
0.146195
0.146225
0.146256
0.146289
0.146324
0.146362
0.146401
0.146443
0.146488
0.146535
0.146584
0.146636
0.146691
0.146749
0.146809
0.146873
0.146939
0.147008
0.147081
0.147156
0.147235
0.147316
0.1474
0.147487
0.147576
0.147668
0.147762
0.147857
0.147954
0.148052
0.14815
0.148248
0.148344
0.14844
0.148534
0.148626
0.148714
0.148797
0.148875
0.148946
0.14901
0.149067
0.149116
0.149156
0.149188
0.149212
0.149229
0.14924
0.149246
0.149248
0.149249
0.14925
0.149252
0.149259
0.149272
0.149296
0.149334
0.149394
0.149477
0.149591
0.14975
0.149962
0.150237
0.150591
0.151047
0.151637
0.152392
0.153367
0.154642
0.156317
0.158429
0.16107
0.164489
0.168249
0.175768
0.191692
0.242525
0.221006
0.260218
0.442795
0.203752
0.187185
0.181731
0.174864
0.170739
0.165983
0.160953
7.07039
1.2956
0.460435
0.256862
0.18894
0.162576
0.151985
0.147948
0.146554
0.146125
0.146011
0.145991
0.145995
0.146007
0.146021
0.146037
0.146054
0.146072
0.146092
0.146114
0.146137
0.146161
0.146188
0.146216
0.146246
0.146278
0.146313
0.146349
0.146388
0.146429
0.146472
0.146519
0.146568
0.146619
0.146674
0.146732
0.146793
0.146857
0.146925
0.146996
0.147071
0.147149
0.147231
0.147317
0.147406
0.147499
0.147596
0.147696
0.1478
0.147907
0.148017
0.14813
0.148245
0.148362
0.14848
0.148598
0.148717
0.148837
0.148955
0.149071
0.149184
0.149292
0.149395
0.149492
0.149581
0.149663
0.149737
0.149801
0.149858
0.149906
0.149947
0.149981
0.150009
0.150034
0.150055
0.150075
0.150097
0.150123
0.150156
0.150203
0.150271
0.150361
0.150482
0.150651
0.150882
0.151185
0.151579
0.152091
0.15276
0.153629
0.154767
0.156271
0.158264
0.160695
0.163751
0.167723
0.172222
0.180958
0.198515
0.24578
0.224476
0.268753
0.449146
0.206205
0.191271
0.185961
0.178852
0.17455
0.1694
0.163464
7.06898
1.29527
0.460337
0.25683
0.188975
0.162583
0.151974
0.147948
0.146563
0.146139
0.146027
0.146007
0.146012
0.146024
0.146039
0.146055
0.146072
0.146091
0.146111
0.146133
0.146156
0.146182
0.146209
0.146238
0.146269
0.146302
0.146337
0.146374
0.146415
0.146457
0.146503
0.146551
0.146602
0.146656
0.146714
0.146775
0.146839
0.146908
0.14698
0.147056
0.147137
0.147221
0.14731
0.147404
0.147503
0.147606
0.147714
0.147826
0.147944
0.148066
0.148193
0.148324
0.148459
0.148598
0.14874
0.148884
0.149031
0.149181
0.149332
0.149483
0.149632
0.149779
0.149923
0.150061
0.150194
0.150321
0.15044
0.15055
0.150652
0.150744
0.150828
0.150904
0.150972
0.151032
0.151086
0.151135
0.151182
0.151229
0.151281
0.151342
0.151422
0.151523
0.151656
0.151837
0.152085
0.152419
0.152861
0.15344
0.154201
0.1552
0.156527
0.158267
0.160517
0.163281
0.166821
0.171437
0.176843
0.187
0.206374
0.250188
0.230178
0.28065
0.454171
0.209409
0.196097
0.190756
0.183279
0.178575
0.172784
0.165692
7.0675
1.29496
0.460242
0.256802
0.189019
0.162587
0.151959
0.147946
0.146573
0.146153
0.146043
0.146024
0.146029
0.146042
0.146056
0.146072
0.14609
0.146109
0.14613
0.146152
0.146176
0.146202
0.14623
0.14626
0.146292
0.146326
0.146362
0.146401
0.146442
0.146487
0.146534
0.146584
0.146638
0.146695
0.146755
0.14682
0.146888
0.146961
0.147038
0.14712
0.147206
0.147298
0.147395
0.147498
0.147606
0.14772
0.14784
0.147967
0.1481
0.148239
0.148385
0.148537
0.148695
0.14886
0.14903
0.149205
0.149386
0.149573
0.149764
0.149958
0.150153
0.150349
0.150544
0.150738
0.150928
0.151114
0.151294
0.151466
0.151631
0.151787
0.151933
0.15207
0.152197
0.152312
0.152417
0.152511
0.152598
0.15268
0.152761
0.152846
0.152945
0.153064
0.153213
0.15341
0.153676
0.154036
0.154529
0.155186
0.156055
0.157199
0.158682
0.160578
0.163091
0.166227
0.170332
0.175695
0.182209
0.194026
0.215466
0.255987
0.239035
0.295664
0.457578
0.213922
0.201825
0.196194
0.188108
0.182661
0.175911
0.167474
7.06596
1.29464
0.460149
0.256784
0.189065
0.162585
0.151941
0.147944
0.146582
0.146167
0.14606
0.146041
0.146047
0.146059
0.146074
0.146091
0.146109
0.146128
0.14615
0.146172
0.146197
0.146223
0.146252
0.146282
0.146315
0.14635
0.146388
0.146428
0.146471
0.146517
0.146566
0.146619
0.146675
0.146735
0.146799
0.146867
0.146939
0.147017
0.147099
0.147187
0.14728
0.14738
0.147485
0.147597
0.147716
0.147843
0.147977
0.148119
0.148269
0.148428
0.148595
0.148771
0.148957
0.149151
0.149354
0.149566
0.149787
0.150019
0.150258
0.150505
0.150757
0.151015
0.151277
0.151542
0.151807
0.152072
0.152335
0.152594
0.152846
0.153091
0.153327
0.153553
0.153766
0.153964
0.154145
0.15431
0.154461
0.154598
0.154726
0.154849
0.154977
0.15512
0.155289
0.155503
0.15579
0.156175
0.156707
0.157446
0.158412
0.159625
0.161197
0.163241
0.166033
0.169579
0.174335
0.180567
0.188422
0.202183
0.225954
0.263664
0.252684
0.312632
0.4599
0.219914
0.208282
0.202193
0.193278
0.186725
0.178806
0.168853
7.06434
1.29434
0.46006
0.256795
0.189098
0.162572
0.151921
0.147942
0.146591
0.146182
0.146076
0.146058
0.146065
0.146077
0.146093
0.146109
0.146128
0.146148
0.146169
0.146193
0.146218
0.146245
0.146274
0.146306
0.146339
0.146376
0.146415
0.146456
0.146501
0.146549
0.1466
0.146655
0.146714
0.146776
0.146844
0.146916
0.146993
0.147075
0.147163
0.147257
0.147358
0.147465
0.14758
0.147703
0.147834
0.147974
0.148123
0.148282
0.148452
0.148632
0.148824
0.149028
0.149244
0.149473
0.149715
0.14997
0.150241
0.150526
0.150824
0.151136
0.15146
0.151796
0.152143
0.1525
0.152864
0.153235
0.153609
0.153985
0.15436
0.154731
0.155095
0.15545
0.15579
0.156111
0.156408
0.156682
0.156929
0.157152
0.157352
0.157533
0.157705
0.15788
0.158072
0.158304
0.158604
0.159012
0.159544
0.160265
0.161233
0.162481
0.164136
0.166315
0.169396
0.173384
0.178881
0.186124
0.195585
0.211629
0.238072
0.274372
0.274649
0.328553
0.460981
0.228615
0.216078
0.209149
0.198785
0.190477
0.181135
0.169636
7.06267
1.29403
0.459974
0.256831
0.189121
0.162548
0.151899
0.147939
0.146601
0.146197
0.146093
0.146076
0.146082
0.146095
0.146111
0.146128
0.146147
0.146167
0.146189
0.146213
0.146239
0.146267
0.146297
0.146329
0.146364
0.146401
0.146442
0.146485
0.146531
0.146581
0.146634
0.146692
0.146753
0.146819
0.14689
0.146966
0.147048
0.147136
0.14723
0.147331
0.147439
0.147555
0.14768
0.147815
0.147959
0.148113
0.148279
0.148457
0.148649
0.148854
0.149073
0.149309
0.149561
0.14983
0.150117
0.150423
0.150752
0.151101
0.151472
0.151864
0.152277
0.152712
0.153168
0.153644
0.154138
0.154649
0.155175
0.155712
0.156256
0.156803
0.15735
0.157892
0.158419
0.158921
0.159393
0.15983
0.160226
0.160578
0.160887
0.161154
0.161389
0.161602
0.161813
0.162033
0.162285
0.162614
0.163056
0.163679
0.164594
0.165855
0.167579
0.169873
0.173239
0.177688
0.184016
0.19243
0.203796
0.222522
0.25224
0.291097
0.315391
0.374555
0.467837
0.240786
0.225802
0.216894
0.204812
0.194499
0.183592
0.170364
7.06093
1.29374
0.459893
0.256885
0.189135
0.162517
0.151876
0.147937
0.14661
0.146212
0.14611
0.146094
0.1461
0.146114
0.14613
0.146147
0.146166
0.146187
0.14621
0.146234
0.146261
0.146289
0.14632
0.146353
0.146389
0.146428
0.146469
0.146514
0.146562
0.146614
0.14667
0.146729
0.146794
0.146863
0.146938
0.147018
0.147105
0.147198
0.147299
0.147407
0.147524
0.14765
0.147785
0.147932
0.14809
0.148261
0.148446
0.148645
0.14886
0.149093
0.149344
0.149615
0.149908
0.150223
0.150563
0.15093
0.151327
0.151754
0.152213
0.152703
0.153228
0.153788
0.154382
0.155012
0.155677
0.156375
0.157104
0.157861
0.15864
0.159435
0.160241
0.161049
0.161845
0.162611
0.163337
0.16401
0.164615
0.165143
0.165587
0.165947
0.166226
0.166435
0.166596
0.166731
0.166872
0.16707
0.167377
0.167859
0.168645
0.169858
0.171621
0.173999
0.177632
0.182536
0.189778
0.199547
0.213142
0.235046
0.269394
0.321696
0.412181
0.463766
0.509801
0.257858
0.241142
0.225889
0.211445
0.198031
0.185279
0.1706
7.05913
1.29345
0.459817
0.256952
0.189143
0.16248
0.151853
0.147934
0.14662
0.146227
0.146127
0.146111
0.146118
0.146132
0.146148
0.146166
0.146186
0.146207
0.14623
0.146255
0.146282
0.146311
0.146343
0.146377
0.146414
0.146454
0.146497
0.146543
0.146593
0.146647
0.146705
0.146768
0.146835
0.146908
0.146987
0.147072
0.147164
0.147263
0.14737
0.147486
0.147612
0.147748
0.147895
0.148055
0.148229
0.148417
0.148622
0.148844
0.149086
0.14935
0.149636
0.149948
0.150287
0.150656
0.151058
0.151496
0.151974
0.152494
0.153059
0.153671
0.154334
0.15505
0.155822
0.156652
0.15754
0.158486
0.159487
0.160539
0.161635
0.162754
0.163882
0.16501
0.166122
0.167196
0.168215
0.169162
0.170018
0.170764
0.171386
0.171875
0.17223
0.172455
0.172571
0.17261
0.172611
0.172628
0.172736
0.173016
0.173591
0.17464
0.176389