/*--------------------------------*- C++ -*----------------------------------*\
| =========                 |                                                 |
| \\      /  F ield         | OpenFOAM: The Open Source CFD Toolbox           |
|  \\    /   O peration     | Version:  v2106                                 |
|   \\  /    A nd           | Website:  www.openfoam.com                      |
|    \\/     M anipulation  |                                                 |
\*---------------------------------------------------------------------------*/
FoamFile
{
    version     2.0;
    format      ascii;
    arch        "LSB;label=32;scalar=64";
    class       volScalarField;
    location    "0.8";
    object      p;
}
// * * * * * * * * * * * * * * * * * * * * * * * * * * * * * * * * * * * * * //

dimensions      [1 -1 -2 0 0 0 0];

internalField   nonuniform List<scalar> 
29678
(
14641.9
14494.8
14347.6
14200.5
14053.3
13906.2
13759
13611.9
13464.7
13317.6
13170.4
13023.3
12876.1
12729
12581.8
12434.7
12287.6
12140.4
11993.3
11846.1
11699
11551.8
11404.7
11257.6
11110.4
10963.3
10816.1
10669
10521.8
10374.7
10227.6
10080.4
9933.28
9786.14
9639
9491.86
9344.72
9197.58
9050.44
8903.3
8756.16
8609.01
8461.87
8314.73
8167.58
8020.44
7873.29
7726.15
7579
7431.85
7284.71
7137.56
6990.41
6843.26
6696.1
6548.95
6401.8
6254.64
6107.49
5960.33
5813.17
5666.02
5518.86
5371.7
5224.54
5077.38
4930.21
4783.05
4635.89
4488.73
4341.57
4194.41
4047.25
3900.09
3752.94
3605.78
3458.63
3311.48
3164.34
3017.2
2870.06
2722.92
2575.79
2428.67
2281.55
2134.44
1987.33
1840.23
1693.13
1546.04
1398.96
1251.88
1104.82
957.753
810.694
663.644
516.588
369.564
222.471
75.5572
0.84572
-0.2919
-0.529336
-0.675139
-0.872192
-1.04105
-1.22481
-1.40118
-1.58103
-1.75923
14642.9
14495.7
14348.6
14201.4
14054.3
13907.1
13760
13612.8
13465.7
13318.5
13171.4
13024.3
12877.1
12730
12582.9
12435.7
12288.6
12141.5
11994.3
11847.2
11700.1
11553
11405.8
11258.7
11111.6
10964.5
10817.3
10670.2
10523.1
10376
10228.8
10081.7
9934.6
9787.47
9640.35
9493.23
9346.11
9198.98
9051.86
8904.74
8757.61
8610.48
8463.35
8316.23
8169.09
8021.96
7874.83
7727.69
7580.55
7433.41
7286.27
7139.12
6991.97
6844.82
6697.67
6550.51
6403.35
6256.18
6109.02
5961.85
5814.68
5667.5
5520.33
5373.15
5225.97
5078.79
4931.6
4784.42
4637.24
4490.06
4342.87
4195.69
4048.52
3901.35
3754.18
3607.02
3459.87
3312.72
3165.59
3018.46
2871.34
2724.24
2577.15
2430.07
2283.01
2135.97
1988.94
1841.94
1694.95
1547.98
1401.04
1254.11
1107.21
960.33
813.469
666.632
519.79
372.965
226.065
78.9818
2.65896
-0.294165
-0.52498
-0.672676
-0.868119
-1.03884
-1.2222
-1.39923
-1.57913
-1.75756
14643.8
14496.6
14349.5
14202.4
14055.2
13908.1
13760.9
13613.8
13466.7
13319.5
13172.4
13025.3
12878.1
12731
12583.9
12436.8
12289.6
12142.5
11995.4
11848.3
11701.2
11554.1
11407
11259.9
11112.7
10965.6
10818.5
10671.4
10524.3
10377.2
10230.1
10083
9935.91
9788.81
9641.7
9494.6
9347.49
9200.39
9053.28
8906.17
8759.07
8611.95
8464.84
8317.73
8170.61
8023.49
7876.36
7729.24
7582.1
7434.97
7287.83
7140.69
6993.54
6846.39
6699.23
6552.07
6404.9
6257.72
6110.55
5963.36
5816.18
5668.99
5521.79
5374.59
5227.39
5080.19
4932.99
4785.78
4638.58
4491.38
4344.17
4196.97
4049.78
3902.6
3755.42
3608.25
3461.1
3313.95
3166.82
3019.71
2872.62
2725.54
2578.49
2431.46
2284.46
2137.48
1990.54
1843.63
1696.75
1549.9
1403.09
1256.32
1109.58
962.884
816.223
669.609
522.998
376.471
229.798
83.3341
4.9209
-0.294332
-0.513003
-0.670653
-0.864117
-1.03671
-1.21973
-1.39761
-1.57772
-1.75678
14644.7
14497.6
14350.4
14203.3
14056.2
13909
13761.9
13614.8
13467.6
13320.5
13173.4
13026.3
12879.1
12732
12584.9
12437.8
12290.7
12143.6
11996.5
11849.4
11702.3
11555.2
11408.1
11261
11113.9
10966.8
10819.7
10672.6
10525.6
10378.5
10231.4
10084.3
9937.22
9790.14
9643.05
9495.97
9348.88
9201.79
9054.71
8907.62
8760.52
8613.43
8466.33
8319.23
8172.12
8025.01
7877.9
7730.78
7583.66
7436.53
7289.4
7142.26
6995.11
6847.96
6700.8
6553.63
6406.45
6259.27
6112.08
5964.88
5817.68
5670.47
5523.26
5376.04
5228.82
5081.6
4934.37
4787.14
4639.92
4492.69
4345.47
4198.25
4051.04
3903.84
3756.65
3609.47
3462.31
3315.17
3168.04
3020.94
2873.87
2726.82
2579.81
2432.82
2285.88
2138.97
1992.1
1845.28
1698.51
1551.78
1405.1
1258.48
1111.91
965.398
818.939
672.55
526.176
379.954
233.517
87.6574
7.13169
-0.298534
-0.507722
-0.670103
-0.8614
-1.03534
-1.21807
-1.39629
-1.57642
-1.75549
14645.7
14498.5
14351.4
14204.2
14057.1
13910
13762.8
13615.7
13468.6
13321.5
13174.4
13027.3
12880.1
12733
12585.9
12438.8
12291.7
12144.6
11997.6
11850.5
11703.4
11556.3
11409.2
11262.1
11115.1
10968
10820.9
10673.9
10526.8
10379.7
10232.7
10085.6
9938.53
9791.47
9644.4
9497.34
9350.27
9203.2
9056.13
8909.06
8761.98
8614.9
8467.82
8320.73
8173.64
8026.54
7879.44
7732.34
7585.22
7438.1
7290.97
7143.83
6996.69
6849.53
6702.37
6555.19
6408.01
6260.82
6113.62
5966.41
5819.19
5671.97
5524.73
5377.49
5230.25
5083
4935.75
4788.5
4641.25
4494
4346.75
4199.51
4052.28
3905.06
3757.86
3610.67
3463.5
3316.36
3169.24
3022.15
2875.09
2728.07
2581.09
2434.15
2287.26
2140.41
1993.63
1846.89
1700.22
1553.61
1407.06
1260.59
1114.18
967.854
821.596
675.433
529.3
383.378
237.188
91.8662
9.27776
-0.301703
-0.503885
-0.670352
-0.859565
-1.03457
-1.21693
-1.39534
-1.57542
-1.75451
14646.6
14499.5
14352.3
14205.2
14058.1
13910.9
13763.8
13616.7
13469.6
13322.4
13175.3
13028.2
12881.1
12734
12586.9
12439.9
12292.8
12145.7
11998.6
11851.5
11704.5
11557.4
11410.4
11263.3
11116.2
10969.2
10822.1
10675.1
10528
10381
10233.9
10086.9
9939.84
9792.8
9645.75
9498.71
9351.66
9204.61
9057.55
8910.5
8763.44
8616.38
8469.31
8322.24
8175.16
8028.08
7880.99
7733.89
7586.79
7439.67
7292.55
7145.41
6998.27
6851.11
6703.95
6556.77
6409.58
6262.38
6115.17
5967.94
5820.71
5673.46
5526.21
5378.95
5231.68
5084.41
4937.14
4789.86
4642.58
4495.31
4348.03
4200.77
4053.52
3906.28
3759.05
3611.85
3464.68
3317.53
3170.41
3023.32
2876.28
2729.28
2582.33
2435.43
2288.59
2141.81
1995.09
1848.44
1701.87
1555.37
1408.95
1262.62
1116.38
970.232
824.174
678.234
532.341
386.703
240.768
95.8771
11.3461
-0.305051
-0.501645
-0.671311
-0.858514
-1.0344
-1.21625
-1.39474
-1.57467
-1.75365
14647.6
14500.4
14353.3
14206.1
14059
13911.9
13764.7
13617.6
13470.5
13323.4
13176.3
13029.2
12882.1
12735
12588
12440.9
12293.8
12146.7
11999.7
11852.6
11705.6
11558.5
11411.5
11264.4
11117.4
10970.4
10823.3
10676.3
10529.3
10382.2
10235.2
10088.2
9941.15
9794.13
9647.1
9500.07
9353.05
9206.01
9058.98
8911.94
8764.9
8617.86
8470.81
8323.75
8176.69
8029.62
7882.54
7735.46
7588.36
7441.25
7294.14
7147.01
6999.86
6852.71
6705.54
6558.35
6411.16
6263.95
6116.72
5969.48
5822.23
5674.97
5527.7
5380.41
5233.12
5085.82
4938.52
4791.22
4643.91
4496.61
4349.31
4202.02
4054.74
3907.47
3760.23
3613.01
3465.82
3318.66
3171.54
3024.46
2877.43
2730.45
2583.52
2436.66
2289.86
2143.13
1996.49
1849.92
1703.44
1557.05
1410.76
1264.57
1118.48
972.513
826.652
680.93
535.275
389.908
244.233
99.7041
13.3463
-0.308619
-0.500606
-0.672824
-0.85813
-1.03471
-1.21598
-1.39448
-1.57417
-1.75301
14648.5
14501.3
14354.2
14207.1
14059.9
13912.8
13765.7
13618.6
13471.5
13324.4
13177.3
13030.2
12883.1
12736
12589
12441.9
12294.8
12147.8
12000.7
11853.7
11706.7
11559.6
11412.6
11265.6
11118.6
10971.5
10824.5
10677.5
10530.5
10383.5
10236.5
10089.5
9942.46
9795.46
9648.45
9501.44
9354.43
9207.42
9060.41
8913.39
8766.37
8619.34
8472.31
8325.27
8178.23
8031.17
7884.11
7737.03
7589.94
7442.85
7295.73
7148.61
7001.47
6854.31
6707.14
6559.95
6412.75
6265.53
6118.29
5971.04
5823.77
5676.49
5529.19
5381.88
5234.57
5087.24
4939.91
4792.57
4645.24
4497.9
4350.57
4203.25
4055.94
3908.65
3761.38
3614.14
3466.93
3319.76
3172.63
3025.55
2878.52
2731.55
2584.65
2437.82
2291.06
2144.39
1997.8
1851.31
1704.92
1558.63
1412.46
1266.4
1120.48
974.677
829.009
683.501
538.081
392.974
247.565
103.36
15.2833
-0.312394
-0.500526
-0.674721
-0.858299
-1.0354
-1.21606
-1.39449
-1.57389
-1.75254
14649.4
14502.3
14355.1
14208
14060.9
13913.7
13766.6
13619.5
13472.4
13325.3
13178.2
13031.2
12884.1
12737
12590
12442.9
12295.9
12148.8
12001.8
11854.8
11707.8
11560.7
11413.7
11266.7
11119.7
10972.7
10825.7
10678.7
10531.7
10384.7
10237.7
10090.8
9943.77
9796.78
9649.8
9502.81
9355.82
9208.83
9061.84
8914.84
8767.84
8620.83
8473.82
8326.8
8179.77
8032.73
7885.68
7738.61
7591.54
7444.45
7297.35
7150.22
7003.09
6855.93
6708.76
6561.57
6414.36
6267.12
6119.88
5972.61
5825.32
5678.02
5530.7
5383.36
5236.02
5088.66
4941.3
4793.93
4646.56
4499.19
4351.83
4204.47
4057.13
3909.81
3762.51
3615.24
3468.01
3320.82
3173.68
3026.59
2879.56
2732.6
2585.71
2438.9
2292.18
2145.55
1999.02
1852.6
1706.29
1560.1
1414.04
1268.12
1122.34
976.703
831.224
685.924
540.737
395.883
250.747
106.847
17.155
-0.316252
-0.501234
-0.676881
-0.858939
-1.03638
-1.21642
-1.39473
-1.5738
-1.75223
14650.3
14503.2
14356
14208.9
14061.8
13914.7
13767.6
13620.5
13473.4
13326.3
13179.2
13032.1
12885.1
12738
12591
12443.9
12296.9
12149.9
12002.9
11855.8
11708.8
11561.8
11414.8
11267.8
11120.9
10973.9
10826.9
10679.9
10532.9
10386
10239
10092
9945.07
9798.11
9651.15
9504.18
9357.22
9210.25
9063.28
8916.3
8769.32
8622.33
8475.33
8328.33
8181.32
8034.29
7887.26
7740.21
7593.15
7446.07
7298.97
7151.86
7004.72
6857.57
6710.39
6563.2
6415.98
6268.74
6121.48
5974.19
5826.89
5679.56
5532.22
5384.86
5237.48
5090.09
4942.69
4795.29
4647.88
4500.47
4353.07
4205.68
4058.3
3910.94
3763.6
3616.3
3469.04
3321.83
3174.67
3027.56
2880.53
2733.57
2586.69
2439.9
2293.2
2146.61
2000.13
1853.77
1707.54
1561.44
1415.49
1269.68
1124.04
978.573
833.276
688.179
543.221
398.613
253.758
110.152
18.9542
-0.320112
-0.502588
-0.679203
-0.85997
-1.03758
-1.21702
-1.39515
-1.57386
-1.75205
14651.2
14504.1
14356.9
14209.8
14062.7
13915.6
13768.5
13621.4
13474.3
13327.2
13180.2
13033.1
12886
12739
12592
12444.9
12297.9
12150.9
12003.9
11856.9
11709.9
11562.9
11415.9
11269
11122
10975
10828.1
10681.1
10534.2
10387.2
10240.3
10093.3
9946.38
9799.44
9652.49
9505.55
9358.61
9211.66
9064.71
8917.76
8770.8
8623.83
8476.86
8329.87
8182.88
8035.87
7888.85
7741.82
7594.77
7447.7
7300.61
7153.51
7006.38
6859.23
6712.05
6564.85
6417.63
6270.38
6123.1
5975.8
5828.47
5681.13
5533.76
5386.36
5238.96
5091.53
4944.09
4796.65
4649.2
4501.75
4354.3
4206.87
4059.44
3912.04
3764.67
3617.33
3470.03
3322.79
3175.6
3028.48
2881.43
2734.46
2587.58
2440.8
2294.13
2147.57
2001.13
1854.82
1708.65
1562.63
1416.78
1271.09
1125.58
980.263
835.141
690.241
545.509
401.141
256.575
113.256
20.6676
-0.323958
-0.504465
-0.68163
-0.861322
-1.03892
-1.2178
-1.39571
-1.57406
-1.75199
14652.1
14505
14357.9
14210.7
14063.6
13916.5
13769.4
13622.3
13475.2
13328.2
13181.1
13034
12887
12740
12592.9
12445.9
12298.9
12151.9
12004.9
11857.9
11711
11564
11417
11270.1
11123.1
10976.2
10829.2
10682.3
10535.4
10388.4
10241.5
10094.6
9947.68
9800.76
9653.84
9506.92
9360
9213.08
9066.15
8919.22
8772.28
8625.34
8478.39
8331.42
8184.45
8037.46
7890.46
7743.44
7596.41
7449.35
7302.27
7155.18
7008.05
6860.9
6713.73
6566.53
6419.3
6272.04
6124.75
5977.43
5830.08
5682.71
5535.31
5387.89
5240.45
5092.98
4945.5
4798.01
4650.52
4503.02
4355.53
4208.04
4060.57
3913.12
3765.69
3618.31
3470.97
3323.69
3176.47
3029.32
2882.24
2735.26
2588.37
2441.6
2294.93
2148.39
2001.99
1855.72
1709.61
1563.66
1417.89
1272.31
1126.93
981.752
836.798
692.085
547.574
403.439
259.167
116.129
22.2796
-0.327801
-0.506755
-0.684125
-0.862925
-1.04038
-1.21873
-1.39637
-1.57435
-1.75201
14653
14505.9
14358.7
14211.6
14064.5
13917.4
13770.3
13623.2
13476.1
13329.1
13182
13035
12888
12740.9
12593.9
12446.9
12299.9
12152.9
12006
11859
11712
11565.1
11418.1
11271.2
11124.3
10977.3
10830.4
10683.5
10536.6
10389.7
10242.8
10095.9
9948.98
9802.08
9655.19
9508.29
9361.4
9214.5
9067.6
8920.69
8773.78
8626.86
8479.93
8332.99
8186.03
8039.07
7892.08
7745.08
7598.06
7451.02
7303.96
7156.87
7009.75
6862.61
6715.43
6568.23
6420.99
6273.72
6126.42
5979.09
5831.72
5684.32
5536.89
5389.44
5241.95
5094.45
4946.93
4799.39
4651.84
4504.29
4356.74
4209.2
4061.67
3914.16
3766.69
3619.25
3471.86
3324.53
3177.26
3030.08
2882.97
2735.96
2589.06
2442.28
2295.61
2149.08
2002.7
1856.47
1710.4
1564.52
1418.82
1273.33
1128.06
983.017
838.219
693.684
549.387
405.478
261.502
118.739
23.7712
-0.331661
-0.509363
-0.686661
-0.864714
-1.04191
-1.21976
-1.39709
-1.57471
-1.75209
14653.9
14506.8
14359.6
14212.5
14065.4
13918.3
13771.2
13624.1
13477.1
13330
13183
13035.9
12888.9
12741.9
12594.9
12447.9
12300.9
12153.9
12007
11860
11713.1
11566.1
11419.2
11272.3
11125.4
10978.5
10831.6
10684.7
10537.8
10390.9
10244
10097.1
9950.28
9803.41
9656.54
9509.67
9362.8
9215.92
9069.05
8922.17
8775.28
8628.38
8481.48
8334.56
8187.63
8040.68
7893.72
7746.74
7599.74
7452.71
7305.66
7158.59
7011.48
6864.34
6717.17
6569.96
6422.72
6275.44
6128.13
5980.78
5833.39
5685.96
5538.5
5391.01
5243.49
5095.94
4948.36
4800.77
4653.17
4505.56
4357.94
4210.34
4062.75
3915.17
3767.64
3620.14
3472.69
3325.3
3177.99
3030.75
2883.61
2736.56
2589.63
2442.83
2296.16
2149.63
2003.25
1857.04
1711.01
1565.18
1419.54
1274.13
1128.96
984.035
839.379
695.01
550.916
407.222
263.542
121.044
25.1197
-0.335551
-0.512195
-0.689228
-0.866626
-1.04349
-1.22085
-1.39787
-1.57512
-1.75222
14654.8
14507.6
14360.5
14213.4
14066.3
13919.2
13772.1
13625
13478
13330.9
13183.9
13036.8
12889.8
12742.8
12595.8
12448.9
12301.9
12154.9
12008
11861
11714.1
11567.2
11420.3
11273.4
11126.5
10979.6
10832.7
10685.9
10539
10392.1
10245.3
10098.4
9951.57
9804.72
9657.88
9511.04
9364.19
9217.35
9070.5
8923.64
8776.78
8629.91
8483.04
8336.14
8189.24
8042.32
7895.38
7748.42
7601.44
7454.43
7307.4
7160.33
7013.24
6866.1
6718.94
6571.73
6424.49
6277.2
6129.87
5982.5
5835.09
5687.64
5540.14
5392.61
5245.04
5097.45
4949.82
4802.17
4654.5
4506.82
4359.14
4211.47
4063.8
3916.16
3768.54
3620.97
3473.46
3326.01
3178.63
3031.34
2884.14
2737.05
2590.08
2443.25
2296.55
2150.01
2003.64
1857.44
1711.43
1565.62
1420.04
1274.69
1129.6
984.78
840.251
696.032
552.126
408.634
265.243
123.001
26.2986
-0.339455
-0.515152
-0.691754
-0.868585
-1.04509
-1.22203
-1.39869
-1.57557
-1.75237
14655.6
14508.5
14361.4
14214.2
14067.1
13920
13773
13625.9
13478.8
13331.8
13184.8
13037.8
12890.8
12743.8
12596.8
12449.8
12302.9
12155.9
12009
11862.1
11715.2
11568.2
11421.4
11274.5
11127.6
10980.7
10833.9
10687
10540.2
10393.3
10246.5
10099.7
9952.86
9806.04
9659.22
9512.41
9365.59
9218.78
9071.95
8925.13
8778.3
8631.46
8484.61
8337.74
8190.87
8043.97
7897.06
7750.12
7603.16
7456.17
7309.16
7162.11
7015.03
6867.9
6720.74
6573.54
6426.29
6279
6131.66
5984.27
5836.83
5689.35
5541.82
5394.25
5246.64
5098.98
4951.3
4803.58
4655.85
4508.1
4360.34
4212.58
4064.84
3917.11
3769.41
3621.76
3474.16
3326.63
3179.18
3031.82
2884.56
2737.41
2590.4
2443.52
2296.79
2150.23
2003.84
1857.64
1711.63
1565.85
1420.3
1275
1129.97
985.229
840.805
696.717
552.979
409.673
266.557
124.556
27.2769
-0.343297
-0.518147
-0.694258
-0.870536
-1.04665
-1.22315
-1.39951
-1.57606
-1.75255
14656.5
14509.4
14362.2
14215.1
14068
13920.9
13773.8
13626.8
13479.7
13332.7
13185.7
13038.7
12891.7
12744.7
12597.7
12450.8
12303.8
12156.9
12010
11863.1
11716.2
11569.3
11422.4
11275.5
11128.7
10981.8
10835
10688.2
10541.4
10394.5
10247.7
10100.9
9954.15
9807.36
9660.57
9513.78
9366.99
9220.21
9073.41
8926.62
8779.82
8633.01
8486.19
8339.35
8192.51
8045.64
7898.76
7751.85
7604.91
7457.95
7310.95
7163.92
7016.85
6869.74
6722.59
6575.39
6428.14
6280.84
6133.49
5986.08
5838.62
5691.11
5543.55
5395.93
5248.26
5100.55
4952.8
4805.02
4657.21
4509.38
4361.53
4213.69
4065.85
3918.03
3770.24
3622.49
3474.8
3327.18
3179.64
3032.2
2884.86
2737.65
2590.57
2443.64
2296.87
2150.27
2003.85
1857.63
1711.62
1565.83
1420.3
1275.02
1130.04
985.357
841.014
697.032
553.437
410.292
267.431
125.651
28.019
-0.347376
-0.521001
-0.696746
-0.872434
-1.04814
-1.22422
-1.40029
-1.57653
-1.75276
14657.3
14510.2
14363.1
14215.9
14068.8
13921.7
13774.7
13627.6
13480.6
13333.6
13186.5
13039.5
12892.6
12745.6
12598.6
12451.7
12304.8
12157.9
12010.9
11864.1
11717.2
11570.3
11423.5
11276.6
11129.8
10983
10836.1
10689.3
10542.5
10395.7
10249
10102.2
9955.43
9808.67
9661.91
9515.15
9368.39
9221.64
9074.88
8928.11
8781.35
8634.57
8487.78
8340.98
8194.16
8047.33
7900.47
7753.59
7606.69
7459.75
7312.78
7165.77
7018.72
6871.62
6724.48
6577.28
6430.04
6282.73
6135.37
5987.95
5840.47
5692.92
5545.32
5397.66
5249.94
5102.16
4954.35
4806.48
4658.59
4510.67
4362.73
4214.78
4066.84
3918.92
3771.02
3623.17
3475.37
3327.65
3180.01
3032.47
2885.05
2737.75
2590.6
2443.61
2296.78
2150.12
2003.66
1857.41
1711.37
1565.57
1420.03
1274.76
1129.79
985.14
840.85
696.943
553.457
410.444
267.806
126.221
28.484
-0.351054
-0.523668
-0.699031
-0.874175
-1.04948
-1.22519
-1.40098
-1.57696
-1.75298
14658.2
14511
14363.9
14216.8
14069.7
13922.6
13775.5
13628.5
13481.4
13334.4
13187.4
13040.4
12893.5
12746.5
12599.5
12452.6
12305.7
12158.8
12011.9
11865
11718.2
11571.3
11424.5
11277.7
11130.8
10984
10837.3
10690.5
10543.7
10396.9
10250.2
10103.4
9956.7
9809.97
9663.24
9516.52
9369.79
9223.07
9076.34
8929.62
8782.88
8636.14
8489.39
8342.62
8195.84
8049.04
7902.22
7755.37
7608.49
7461.58
7314.64
7167.65
7020.62
6873.55
6726.42
6579.23
6431.99
6284.68
6137.31
5989.87
5842.37
5694.79
5547.15
5399.44
5251.66
5103.82
4955.93
4807.98
4659.99
4511.97
4363.93
4215.87
4067.81
3919.77
3771.76
3623.78
3475.87
3328.03
3180.28
3032.63
2885.11
2737.72
2590.48
2443.41
2296.5
2149.79
2003.27
1856.96
1710.88
1565.04
1419.47
1274.18
1129.2
984.557
840.285
696.417
553
410.079
267.619
126.192
28.6257
-0.354594
-0.526106
-0.701085
-0.875693
-1.05062
-1.226
-1.40156
-1.57734
-1.7532
14659
14511.8
14364.7
14217.6
14070.5
13923.4
13776.3
13629.3
13482.3
13335.3
13188.3
13041.3
12894.3
12747.4
12600.4
12453.5
12306.6
12159.7
12012.9
11866
11719.2
11572.3
11425.5
11278.7
11131.9
10985.1
10838.4
10691.6
10544.9
10398.1
10251.4
10104.7
9957.97
9811.27
9664.58
9517.88
9371.19
9224.5
9077.81
8931.12
8784.42
8637.72
8491
8344.27
8197.53
8050.77
7903.98
7757.17
7610.33
7463.45
7316.54
7169.58
7022.58
6875.52
6728.41
6581.24
6434
6286.69
6139.32
5991.86
5844.34
5696.73
5549.04
5401.28
5253.44
5105.53
4957.55
4809.52
4661.43
4513.3
4365.13
4216.95
4068.77
3920.59
3772.44
3624.33
3476.29
3328.32
3180.44
3032.67
2885.03
2737.54
2590.2
2443.03
2296.05
2149.25
2002.66
1856.28
1710.14
1564.25
1418.62
1273.29
1128.26
983.589
839.295
695.422
552.022
409.144
266.805
125.486
28.3922
-0.357734
-0.528196
-0.702785
-0.876872
-1.05146
-1.22658
-1.40197
-1.57764
-1.75343
14659.8
14512.6
14365.5
14218.4
14071.3
13924.2
13777.1
13630.1
13483.1
13336.1
13189.1
13042.1
12895.2
12748.2
12601.3
12454.4
12307.5
12160.6
12013.8
11866.9
11720.1
11573.3
11426.5
11279.7
11133
10986.2
10839.5
10692.7
10546
10399.3
10252.6
10105.9
9959.24
9812.57
9665.9
9519.24
9372.59
9225.94
9079.28
8932.63
8785.97
8639.3
8492.63
8345.94
8199.24
8052.52
7905.77
7759
7612.2
7465.36
7318.48
7171.55
7024.58
6877.55
6730.46
6583.3
6436.08
6288.78
6141.4
5993.93
5846.38
5698.74
5551.01
5403.2
5255.29
5107.31
4959.24
4811.1
4662.9
4514.65
4366.35
4218.03
4069.7
3921.38
3773.07
3624.82
3476.62
3328.51
3180.49
3032.59
2884.82
2737.21
2589.76
2442.48
2295.39
2148.5
2001.82
1855.37
1709.14
1563.17
1417.47
1272.06
1126.97
982.219
837.86
693.929
550.488
407.589
265.296
124.017
27.7278
-0.360182
-0.529836
-0.704009
-0.877596
-1.05193
-1.22686
-1.40217
-1.57782
-1.75363
14660.5
14513.4
14366.3
14219.1
14072
13925
13777.9
13630.9
13483.9
13336.9
13189.9
13043
12896
12749.1
12602.2
12455.3
12308.4
12161.5
12014.7
11867.9
11721.1
11574.3
11427.5
11280.7
11134
10987.3
10840.5
10693.8
10547.1
10400.5
10253.8
10107.1
9960.49
9813.85
9667.22
9520.6
9373.98
9227.37
9080.75
8934.14
8787.52
8640.9
8494.27
8347.62
8200.96
8054.29
7907.59
7760.86
7614.1
7467.3
7320.46
7173.58
7026.64
6879.64
6732.57
6585.44
6438.23
6290.93
6143.55
5996.08
5848.51
5700.84
5553.07
5405.2
5257.23
5109.16
4960.99
4812.75
4664.42
4516.03
4367.59
4219.12
4070.62
3922.13
3773.66
3625.23
3476.87
3328.6
3180.42
3032.37
2884.46
2736.71
2589.13
2441.74
2294.54
2147.54
2000.76
1854.21
1707.89
1561.82
1416.02
1270.5
1125.3
980.44
835.965
691.917
548.365
405.366
263.023
121.695
26.5732
-0.361573
-0.530914
-0.704595
-0.877753
-1.0519
-1.22676
-1.4021
-1.57785
-1.75381
14661.3
14514.2
14367
14219.9
14072.8
13925.7
13778.7
13631.7
13484.7
13337.7
13190.7
13043.8
12896.8
12749.9
12603
12456.1
12309.3
12162.4
12015.6
11868.8
11722
11575.2
11428.5
11281.7
11135
10988.3
10841.6
10694.9
10548.3
10401.6
10255
10108.3
9961.73
9815.13
9668.54
9521.95
9375.37
9228.8
9082.22
8935.65
8789.08
8642.5
8495.91
8349.32
8202.71
8056.08
7909.42
7762.74
7616.03
7469.28
7322.49
7175.65
7028.75
6881.79
6734.76
6587.65
6440.46
6293.18
6145.8
5998.32
5850.74
5703.04
5555.23
5407.3
5259.25
5111.09
4962.83
4814.46
4666
4517.46
4368.86
4220.21
4071.54
3922.85
3774.2
3625.59
3477.04
3328.58
3180.23
3032.01
2883.94
2736.04
2588.32
2440.8
2293.48
2146.36
1999.47
1852.8
1706.37
1560.18
1414.26
1268.61
1123.27
978.249
833.603
689.373
545.628
402.434
259.922
118.43
24.8675
-0.361456
-0.531346
-0.704369
-0.877223
-1.05129
-1.22618
-1.40168
-1.57768
-1.75392
14662
14514.9
14367.8
14220.6
14073.6
13926.5
13779.5
13632.4
13485.4
13338.5
13191.5
13044.6
12897.6
12750.7
12603.8
12457
12310.1
12163.3
12016.5
11869.7
11722.9
11576.2
11429.4
11282.7
11136
10989.3
10842.7
10696
10549.4
10402.7
10256.1
10109.5
9962.96
9816.4
9669.84
9523.29
9376.75
9230.22
9083.69
8937.16
8790.64
8644.11
8497.57
8351.02
8204.47
8057.89
7911.29
7764.66
7618
7471.31
7324.56
7177.77
7030.92
6884
6737.01
6589.94
6442.77
6295.52
6148.15
6000.67
5853.07
5705.35
5557.5
5409.51
5261.39
5113.14
4964.76
4816.26
4667.65
4518.95
4370.17
4221.33
4072.45
3923.55
3774.69
3625.86
3477.11
3328.44
3179.9
3031.49
2883.25
2735.19
2587.32
2439.65
2292.19
2144.96
1997.94
1851.15
1704.59
1558.27
1412.2
1266.39
1120.87
975.652
830.779
686.292
542.267
398.763
255.936
114.137
22.5515
-0.359253
-0.531169
-0.703155
-0.875854
-1.04994
-1.22503
-1.40085
-1.57725
-1.75395
14662.8
14515.6
14368.5
14221.4
14074.3
13927.2
13780.2
13633.2
13486.2
13339.2
13192.3
13045.3
12898.4
12751.5
12604.6
12457.8
12311
12164.1
12017.4
11870.6
11723.8
11577.1
11430.4
11283.7
11137
10990.3
10843.7
10697.1
10550.5
10403.9
10257.3
10110.7
9964.18
9817.65
9671.13
9524.63
9378.13
9231.64
9085.16
8938.68
8792.2
8645.72
8499.23
8352.74
8206.24
8059.72
7913.18
7766.61
7620.01
7473.37
7326.69
7179.95
7033.15
6886.29
6739.35
6592.32
6445.19
6297.96
6150.61
6003.14
5855.53
5707.79
5559.89
5411.85
5263.65
5115.3
4966.8
4818.16
4669.39
4520.51
4371.53
4222.47
4073.36
3924.24
3775.13
3626.07
3477.07
3328.18
3179.42
3030.81
2882.37
2734.13
2586.1
2438.28
2290.68
2143.31
1996.17
1849.25
1702.55
1556.09
1409.86
1263.87
1118.13
972.669
827.513
682.696
538.289
394.348
251.035
108.733
19.5756
-0.354095
-0.530809
-0.700712
-0.87346
-1.0477
-1.22317
-1.39951
-1.57652
-1.75387
14663.5
14516.3
14369.2
14222.1
14075
13927.9
13780.9
13633.9
13486.9
13340
13193
13046.1
12899.2
12752.3
12605.4
12458.6
12311.8
12165
12018.2
11871.4
11724.7
11578
11431.3
11284.6
11138
10991.3
10844.7
10698.1
10551.5
10405
10258.4
10111.9
9965.39
9818.89
9672.41
9525.95
9379.49
9233.05
9086.61
8940.19
8793.76
8647.33
8500.91
8354.47
8208.03
8061.57
7915.09
7768.59
7622.05
7475.48
7328.86
7182.19
7035.46
6888.65
6741.77
6594.79
6447.71
6300.51
6153.19
6005.73
5858.12
5710.36
5562.43
5414.33
5266.06
5117.61
4968.98
4820.18
4671.24
4522.15
4372.95
4223.65
4074.28
3924.9
3775.52
3626.19
3476.93
3327.78
3178.78
3029.94
2881.3
2732.87
2584.66
2436.68
2288.94
2141.43
1994.15
1847.1
1700.26
1553.64
1407.24
1261.05
1115.08
969.331
823.84
678.621
533.734
389.218
245.227
102.154
15.9082
-0.344376
-0.531975
-0.695808
-0.869771
-1.04434
-1.22046
-1.39757
-1.57542
-1.75364
14664.1
14517
14369.9
14222.8
14075.7
13928.6
13781.6
13634.6
13487.6
13340.7
13193.7
13046.8
12899.9
12753
12606.2
12459.4
12312.6
12165.8
12019
11872.3
11725.6
11578.9
11432.2
11285.5
11138.9
10992.3
10845.7
10699.1
10552.6
10406
10259.5
10113
9966.57
9820.12
9673.68
9527.26
9380.85
9234.45
9088.07
8941.69
8795.32
8648.95
8502.58
8356.21
8209.83
8063.43
7917.02
7770.59
7624.13
7477.63
7331.08
7184.48
7037.83
6891.09
6744.27
6597.35
6450.33
6303.18
6155.89
6008.45
5860.86
5713.08
5565.13
5416.98
5268.63
5120.07
4971.31
4822.35
4673.21
4523.9
4374.45
4224.87
4075.22
3925.54
3775.86
3626.22
3476.66
3327.23
3177.96
3028.87
2880
2731.37
2582.98
2434.83
2286.94
2139.3
1991.89
1844.7
1697.73
1550.95
1404.37
1257.96
1111.74
965.685
819.815
674.133
528.676
383.458
238.591
94.3814
11.5336
-0.327051
-0.537041
-0.686503
-0.865272
-1.03963
-1.21678
-1.39498
-1.57394
-1.75324
14664.8
14517.7
14370.5
14223.4
14076.3
13929.3
13782.3
13635.3
13488.3
13341.4
13194.4
13047.5
12900.6
12753.8
12606.9
12460.1
12313.3
12166.6
12019.8
11873.1
11726.4
11579.7
11433.1
11286.4
11139.8
10993.2
10846.7
10700.1
10553.6
10407.1
10260.6
10114.2
9967.74
9821.32
9674.93
9528.55
9382.19
9235.84
9089.51
8943.18
8796.87
8650.56
8504.25
8357.95
8211.64
8065.31
7918.98
7772.62
7626.24
7479.82
7333.36
7186.84
7040.27
6893.61
6746.87
6600.02
6453.06
6305.97
6158.73
6011.34
5863.76
5715.99
5568.01
5419.82
5271.39
5122.73
4973.83
4824.69
4675.34
4525.79
4376.05
4226.16
4076.19
3926.17
3776.14
3626.15
3476.26
3326.5
3176.93
3027.57
2878.46
2729.6
2581.03
2432.72
2284.68
2136.9
1989.37
1842.06
1694.96
1548.03
1401.27
1254.66
1108.17
961.788
815.509
669.319
523.224
377.209
231.315
85.6923
6.48704
-0.295858
-0.541846
-0.670781
-0.860058
-1.03278
-1.21195
-1.39164
-1.57205
-1.75267
14665.4
14518.3
14371.2
14224.1
14077
13929.9
13782.9
13635.9
13489
13342
13195.1
13048.2
12901.3
12754.5
12607.7
12460.9
12314.1
12167.3
12020.6
11873.9
11727.2
11580.5
11433.9
11287.3
11140.7
10994.1
10847.6
10701.1
10554.6
10408.1
10261.7
10115.3
9968.89
9822.51
9676.16
9529.82
9383.51
9237.21
9090.93
8944.67
8798.41
8652.17
8505.93
8359.69
8213.45
8067.21
7920.95
7774.68
7628.38
7482.05
7335.68
7189.26
7042.77
6896.21
6749.55
6602.8
6455.92
6308.91
6161.74
6014.39
5866.85
5719.1
5571.11
5422.87
5274.38
5125.61
4976.56
4827.23
4677.65
4527.83
4377.78
4227.53
4077.18
3926.78
3776.35
3625.97
3475.69
3325.57
3175.66
3026
2876.63
2727.55
2578.78
2430.31
2282.14
2134.24
1986.59
1839.17
1691.96
1544.91
1397.98
1251.16
1104.42
957.712
811.01
664.286
517.517
370.661
223.632
76.7532
1.08847
-0.261814
-0.590491
-0.658516
-0.85487
-1.02314
-1.20599
-1.38759
-1.56968
-1.75194
14666
14518.9
14371.8
14224.7
14077.6
13930.6
13783.6
13636.6
13489.6
13342.7
13195.8
13048.9
12902
12755.2
12608.4
12461.6
12314.8
12168.1
12021.3
11874.7
11728
11581.3
11434.7
11288.1
11141.6
10995
10848.5
10702
10555.6
10409.2
10262.7
10116.4
9970.01
9823.67
9677.36
9531.08
9384.81
9238.57
9092.34
8946.13
8799.94
8653.76
8507.59
8361.43
8215.27
8069.11
7922.94
7776.75
7630.55
7484.32
7338.05
7191.73
7045.34
6898.89
6752.34
6605.69
6458.92
6312
6164.91
6017.63
5870.14
5722.42
5574.44
5426.18
5277.62
5128.74
4979.54
4830.01
4680.19
4530.07
4379.68
4228.97
4078.22
3927.37
3776.49
3625.65
3474.93
3324.4
3174.12
3024.13
2874.47
2725.16
2576.2
2427.58
2279.28
2131.28
1983.55
1836.05
1688.74
1541.58
1394.53
1247.53
1100.55
953.541
806.425
659.156
511.652
363.81
215.651
70.4301
0.196293
-0.160894
-0.425234
-0.611645
-0.82895
-1.00821
-1.19874
-1.383
-1.56719
-1.75107
14666.6
14519.5
14372.4
14225.3
14078.2
13931.2
13784.2
13637.2
13490.2
13343.3
13196.4
13049.5
12902.7
12755.8
12609
12462.2
12315.5
12168.8
12022.1
11875.4
11728.7
11582.1
11435.5
11289
11142.4
10995.9
10849.4
10703
10556.5
10410.1
10263.8
10117.4
9971.1
9824.81
9678.55
9532.31
9386.09
9239.9
9093.73
8947.58
8801.46
8655.35
8509.25
8363.16
8217.08
8071.01
7924.93
7778.85
7632.75
7486.62
7340.46
7194.25
7047.99
6901.65
6755.23
6608.7
6462.04
6315.23
6168.25
6021.07
5873.65
5725.99
5578.03
5429.76
5281.15
5132.18
4982.82
4833.08
4682.98
4532.54
4381.83
4230.48
4079.31
3927.96
3776.55
3625.18
3473.95
3322.94
3172.24
3021.89
2871.93
2722.38
2573.23
2424.48
2276.08
2128.01
1980.23
1832.68
1685.31
1538.09
1390.95
1243.81
1096.63
949.355
801.934
654.212
506.119
357.443
208.27
65.3883
0.174785
-0.183588
-0.395493
-0.602947
-0.813197
-0.999733
-1.19303
-1.37904
-1.56505
-1.75028
14667.2
14520.1
14372.9
14225.8
14078.8
13931.7
13784.7
13637.8
13490.8
13343.9
13197
13050.1
12903.3
12756.5
12609.7
12462.9
12316.2
12169.4
12022.8
11876.1
11729.5
11582.9
11436.3
11289.8
11143.2
10996.8
10850.3
10703.9
10557.5
10411.1
10264.8
10118.5
9972.17
9825.92
9679.7
9533.51
9387.34
9241.21
9095.1
8949.01
8802.95
8656.91
8510.89
8364.89
8218.89
8072.91
7926.94
7780.95
7634.96
7488.95
7342.9
7196.83
7050.7
6904.5
6758.21
6611.83
6465.31
6318.64
6171.78
6024.72
5877.41
5729.82
5581.91
5433.65
5285.01
5135.95
4986.44
4836.47
4686.08
4535.24
4384
4232.35
4080.53
3928.55
3776.5
3624.51
3472.68
3321.13
3169.95
3019.2
2868.93
2719.14
2569.83
2420.96
2272.51
2124.41
1976.61
1829.06
1681.69
1534.44
1387.26
1240.04
1092.78
945.318
797.655
649.54
501.001
351.445
201.817
60.8518
0.0873754
-0.219612
-0.394035
-0.608349
-0.807543
-0.997328
-1.19003
-1.37678
-1.56365
-1.74962
14667.7
14520.6
14373.5
14226.4
14079.3
13932.3
13785.3
13638.3
13491.4
13344.5
13197.6
13050.7
12903.9
12757.1
12610.3
12463.5
12316.8
12170.1
12023.4
11876.8
11730.2
11583.6
11437
11290.5
11144
10997.6
10851.1
10704.7
10558.4
10412
10265.7
10119.4
9973.21
9827
9680.82
9534.68
9388.57
9242.49
9096.44
8950.41
8804.42
8658.45
8512.51
8366.59
8220.69
8074.81
7928.93
7783.06
7637.18
7491.29
7345.39
7199.45
7053.47
6907.42
6761.29
6615.07
6468.71
6322.21
6175.51
6028.6
5881.43
5733.95
5586.13
5437.91
5289.26
5140.13
4990.47
4840.27
4689.55
4538.3
4386.54
4234.34
4081.84
3929.13
3776.33
3623.6
3471.07
3318.88
3167.16
3015.97
2865.37
2715.35
2565.9
2416.97
2268.51
2120.44
1972.69
1825.19
1677.87
1530.67
1383.52
1236.31
1089.03
941.434
793.676
645.229
496.567
346.06
196.481
57.1119
0.0267684
-0.241793
-0.399657
-0.61956
-0.807053
-0.998868
-1.18927
-1.37618
-1.5631
-1.74921
14668.2
14521.1
14374
14226.9
14079.8
13932.8
13785.8
13638.9
13491.9
13345
13198.1
13051.3
12904.4
12757.6
12610.9
12464.1
12317.4