/*--------------------------------*- C++ -*----------------------------------*\
| =========                 |                                                 |
| \\      /  F ield         | OpenFOAM: The Open Source CFD Toolbox           |
|  \\    /   O peration     | Version:  v2106                                 |
|   \\  /    A nd           | Website:  www.openfoam.com                      |
|    \\/     M anipulation  |                                                 |
\*---------------------------------------------------------------------------*/
FoamFile
{
    version     2.0;
    format      ascii;
    arch        "LSB;label=32;scalar=64";
    class       volScalarField;
    location    "0.8";
    object      p_rgh;
}
// * * * * * * * * * * * * * * * * * * * * * * * * * * * * * * * * * * * * * //

dimensions      [1 -1 -2 0 0 0 0];

internalField   nonuniform List<scalar> 
29678
(
0.476235
0.47709
0.478623
0.480453
0.482484
0.484719
0.487223
0.490055
0.493245
0.496798
0.500702
0.504946
0.509519
0.514414
0.519631
0.525165
0.531012
0.53716
0.543601
0.550333
0.557369
0.564621
0.57176
0.579088
0.587024
0.595316
0.603862
0.612631
0.621635
0.630943
0.640595
0.650266
0.659726
0.669072
0.678331
0.687478
0.696474
0.705274
0.713836
0.722119
0.730082
0.737681
0.744867
0.751588
0.757788
0.76341
0.768403
0.772715
0.776293
0.779086
0.781035
0.782085
0.782186
0.781297
0.779393
0.776467
0.772534
0.767635
0.761851
0.755333
0.748394
0.740727
0.731915
0.722187
0.711711
0.700511
0.688367
0.675905
0.663871
0.65225
0.641242
0.631285
0.622712
0.61578
0.6107
0.607713
0.607095
0.609121
0.614045
0.622061
0.633213
0.647695
0.666919
0.69198
0.723014
0.760328
0.803515
0.852236
0.906979
0.96806
1.03567
1.10989
1.19064
1.27763
1.36946
1.46883
1.56294
1.68932
1.74569
1.98221
1.97858
-0.0159935
-0.0694921
-0.0313573
-0.0444731
-0.0293907
-0.0292177
-0.0216448
-0.0175598
-0.011827
1.42502
1.42597
1.42762
1.43005
1.43372
1.43888
1.44554
1.45361
1.46297
1.4735
1.48513
1.49778
1.51142
1.52604
1.54163
1.55819
1.57569
1.59409
1.61332
1.63331
1.65432
1.67674
1.70044
1.72508
1.75045
1.7764
1.80284
1.82976
1.85717
1.88517
1.91378
1.94252
1.971
1.99929
2.02735
2.0551
2.08241
2.10913
2.13516
2.16036
2.18462
2.20781
2.22979
2.2504
2.26947
2.28684
2.30235
2.31585
2.32719
2.3362
2.34273
2.34659
2.34765
2.34577
2.34089
2.33297
2.32204
2.30817
2.29153
2.27238
2.25125
2.22783
2.20169
2.17331
2.14318
2.11173
2.0793
2.04635
2.01329
1.98033
1.9486
1.91961
1.89431
1.87346
1.85778
1.84806
1.84517
1.85001
1.86346
1.88631
1.91904
1.96334
2.02163
2.09533
2.18564
2.29378
2.41955
2.56299
2.72552
2.90822
3.11197
3.33745
3.58503
3.85504
4.14375
4.45675
4.7651
5.09019
5.33973
5.40684
5.63703
-0.0182589
-0.0651362
-0.0288949
-0.0404006
-0.0271793
-0.0266029
-0.0197024
-0.0156609
-0.0101493
2.3722
2.37344
2.37571
2.3794
2.38534
2.39392
2.40508
2.4186
2.43424
2.45181
2.47118
2.49225
2.515
2.53939
2.56542
2.59307
2.62232
2.65304
2.68507
2.71887
2.75509
2.79359
2.83415
2.87606
2.91866
2.96203
3.00615
3.05099
3.09653
3.14275
3.18956
3.2367
3.28389
3.33097
3.37776
3.42406
3.46964
3.51428
3.55777
3.59992
3.64052
3.67937
3.7162
3.75075
3.78275
3.81192
3.838
3.86074
3.87988
3.89513
3.90621
3.91283
3.91475
3.91176
3.90373
3.89062
3.87244
3.8493
3.82138
3.78895
3.75235
3.71174
3.6673
3.61952
3.56902
3.51658
3.46322
3.40925
3.35489
3.30108
3.24863
3.19973
3.15687
3.12122
3.09405
3.0767
3.07065
3.07746
3.09872
3.13601
3.19091
3.26579
3.36317
3.48501
3.63335
3.80984
4.01573
4.25235
4.52143
4.82469
5.16374
5.54003
5.95466
6.40888
6.89792
7.434
7.97346
8.59574
9.07258
9.75909
10.1184
-0.0184254
-0.0531597
-0.026872
-0.0363985
-0.025054
-0.0241393
-0.0180807
-0.0142501
-0.00937549
3.31708
3.31863
3.3216
3.32662
3.33493
3.34702
3.36276
3.38178
3.40373
3.42836
3.4555
3.48504
3.51692
3.55114
3.58769
3.62656
3.66769
3.71092
3.75645
3.80528
3.85755
3.91209
3.96848
4.02651
4.08588
4.14644
4.20811
4.27081
4.33448
4.39904
4.46435
4.53019
4.59626
4.66228
4.72795
4.79295
4.85698
4.91971
4.98088
5.04021
5.09741
5.15215
5.20409
5.25285
5.29803
5.33927
5.37618
5.40841
5.43557
5.45726
5.47306
5.48256
5.48542
5.48136
5.47023
5.45192
5.42646
5.39395
5.3546
5.30872
5.25669
5.19892
5.13585
5.0681
4.99647
4.9219
4.84546
4.76809
4.69093
4.61552
4.54227
4.47329
4.41207
4.36048
4.32045
4.29399
4.28322
4.29041
4.31789
4.36811
4.44384
4.54688
4.68017
4.84772
5.05204
5.29539
5.57992
5.90792
6.28181
6.70407
7.17712
7.70325
8.28443
8.92284
9.61362
10.3754
11.1513
12.0793
12.7916
14.0824
14.5301
-0.0226274
-0.0478783
-0.0263222
-0.0336816
-0.0236792
-0.0224795
-0.0167578
-0.0129545
-0.00808621
4.25898
4.26087
4.2646
4.27102
4.28175
4.29739
4.31773
4.34227
4.37056
4.40227
4.4372
4.47523
4.51632
4.56046
4.60764
4.65787
4.71107
4.76715
4.82701
4.89112
4.9585
5.02838
5.10057
5.17485
5.25098
5.32874
5.408
5.48865
5.57058
5.65368
5.73776
5.82256
5.90773
5.99291
6.07768
6.16163
6.24437
6.32551
6.40469
6.48155
6.5557
6.62673
6.69417
6.75752
6.81629
6.86998
6.91812
6.96022
6.99576
7.02419
7.04496
7.05756
7.06156
7.0566
7.04248
7.01906
6.98634
6.94441
6.8935
6.83396
6.76624
6.69088
6.60855
6.52003
6.42633
6.32861
6.22819
6.12647
6.02498
5.9254
5.82928
5.73907
5.65791
5.58856
5.53364
5.4959
5.47814
5.48335
5.5146
5.57509
5.66826
5.79686
5.96398
6.17453
6.43223
6.7399
7.10055
7.5173
7.99344
8.5323
9.13719
9.81127
10.5574
11.3788
12.2713
13.2582
14.2752
15.5029
16.4634
18.2912
18.8147
-0.0257966
-0.044041
-0.0265706
-0.031846
-0.0229169
-0.0213332
-0.0158098
-0.0119556
-0.00710859
5.19722
5.19949
5.20404
5.21193
5.22513
5.24436
5.26933
5.29941
5.33403
5.37284
5.41559
5.46216
5.51253
5.56667
5.6246
5.68632
5.75176
5.82115
5.89544
5.97436
6.05659
6.14182
6.22987
6.32051
6.41347
6.50852
6.6055
6.70426
6.80467
6.90656
7.00969
7.11373
7.21828
7.32288
7.42704
7.53027
7.63209
7.73204
7.82966
7.92451
8.01611
8.10391
8.18735
8.26581
8.33868
8.40535
8.46523
8.51768
8.56204
8.59763
8.62375
8.63978
8.6452
8.6396
8.62269
8.59428
8.55433
8.50291
8.44024
8.36669
8.28279
8.18921
8.08677
7.97647
7.85954
7.73739
7.61165
7.48407
7.35657
7.23111
7.10994
6.99586
6.89224
6.80252
6.72999
6.67811
6.65043
6.6506
6.68243
6.74981
6.85678
7.0075
7.20533
7.45555
7.76327
8.13186
8.56512
9.06712
9.64205
10.2942
11.0277
11.8468
12.7552
13.7569
14.8493
16.0587
17.3163
18.8285
20.0429
22.3021
22.9464
-0.0291447
-0.0418016
-0.0275298
-0.0307957
-0.0227402
-0.0206582
-0.0152124
-0.0111977
-0.0062485
6.13113
6.13381
6.13923
6.14865
6.16437
6.18721
6.21682
6.25244
6.29341
6.33932
6.38992
6.4451
6.5048
6.56904
6.63783
6.71115
6.78894
6.87201
6.96072
7.0541
7.1512
7.25184
7.35583
7.4629
7.5728
7.68529
7.80018
7.9173
8.03647
8.15745
8.27994
8.40355
8.5278
8.65216
8.77609
8.89902
9.02038
9.13964
9.25627
9.36969
9.47932
9.58451
9.68457
9.77876
9.86636
9.94665
10.0189
10.0823
10.136
10.1793
10.2113
10.2312
10.2385
10.2326
10.2131
10.1799
10.1327
10.0717
9.99703
9.90904
9.80837
9.69577
9.57225
9.43899
9.29744
9.14929
8.99644
8.84103
8.68542
8.53195
8.38316
8.24212
8.11285
7.9995
7.90601
7.83651
7.79528
7.78667
7.8152
7.88548
8.00225
8.17056
8.39473
8.68073
9.03436
9.45955
9.96102
10.5438
11.2131
11.9742
12.8322
13.7922
14.8591
16.0377
17.3269
18.7549
20.2504
22.0334
23.5076
26.1291
26.9445
-0.0327127
-0.0407626
-0.0290423
-0.0304116
-0.0230559
-0.0203911
-0.0149475
-0.0106995
-0.00560232
7.06005
7.06316
7.0695
7.08049
7.09875
7.12522
7.15947
7.20062
7.24794
7.30097
7.35945
7.42327
7.49239
7.56681
7.64656
7.73159
7.82203
7.91887
8.0219
8.12962
8.24163
8.35776
8.47777
8.60141
8.72841
8.85856
8.99163
9.12741
9.26566
9.40608
9.54828
9.69182
9.83615
9.9807
10.1249
10.268
10.4095
10.5487
10.685
10.8176
10.946
11.0693
11.1867
11.2974
11.4005
11.4952
11.5805
11.6556
11.7194
11.771
11.8095
11.8339
11.8435
11.8377
11.8161
11.7783
11.724
11.6532
11.5662
11.4633
11.3452
11.2127
11.067
10.9094
10.7416
10.5655
10.3834
10.1977
10.0114
9.82716
9.64766
9.47616
9.31756
9.17675
9.05834
8.96711
8.90803
8.88618
8.90679
8.97522
9.09694
9.27763
9.52309
9.84015
10.2347
10.7112
11.2755
11.9337
12.692
13.5567
14.5339
15.6298
16.8504
18.2016
19.6836
21.3257
23.056
25.0994
26.8398
29.7852
30.8178
-0.0364881
-0.0406826
-0.0309399
-0.0305803
-0.023747
-0.0204627
-0.0149561
-0.0104176
-0.00513307
7.98329
7.98685
7.99413
8.00671
8.02754
8.05763
8.09652
8.14319
8.19686
8.25701
8.3234
8.39591
8.47451
8.5592
8.64998
8.74681
8.85037
8.96111
9.07809
9.20018
9.32716
9.45886
9.59503
9.73541
9.87976
10.0278
10.1794
10.3342
10.4919
10.6521
10.8144
10.9783
11.1432
11.3084
11.4734
11.6373
11.7996
11.9595
12.1162
12.2689
12.4168
12.5591
12.6947
12.8228
12.9423
13.0522
13.1515
13.2391
13.3138
13.3746
13.4203
13.4499
13.4625
13.4575
13.4341
13.3919
13.3306
13.25
13.1504
13.0321
12.8957
12.7423
12.5731
12.3896
12.1937
11.9875
11.7735
11.5548
11.3345
11.1162
10.9024
10.6965
10.5044
10.3317
10.1838
10.066
9.98409
9.9438
9.95113
10.0122
10.1332
10.3204
10.5813
10.9238
11.3533
11.875
12.4958
13.2229
14.0638
15.0256
16.1158
17.3416
18.7101
20.2284
21.8987
23.7495
25.712
28.0076
30.0219
33.2715
34.5616
-0.0403453
-0.0413903
-0.0330994
-0.0312203
-0.0247287
-0.0208256
-0.0151963
-0.0103279
-0.00482461
8.90015
8.90418
8.91242
8.9266
8.94998
8.98369
9.0272
9.07939
9.1394
9.20669
9.28102
9.36226
9.4504
9.54543
9.6473
9.75627
9.87319
9.99772
10.1285
10.265
10.407
10.5544
10.7069
10.8643
11.0263
11.1926
11.3631
11.5373
11.7148
11.8953
12.0781
12.2628
12.4487
12.6352
12.8216
13.0071
13.191
13.3723
13.5503
13.724
13.8924
14.0546
14.2094
14.3559
14.4928
14.619
14.7333
14.8344
14.9211
14.9919
15.0458
15.0815
15.098
15.0943
15.0697
15.0235
14.9552
14.8648
14.7523
14.6181
14.4628
14.2874
14.0933
13.8821
13.6559
13.417
13.1683
12.9131
12.6552
12.3987
12.1466
11.9021
11.6717
11.4622
11.2794
11.1296
11.019
10.9544
10.9423
10.9897
11.1035
11.2908
11.5606
11.9216
12.3791
12.9387
13.6087
14.3975
15.3134
16.365
17.5607
18.9091
20.4187
22.0975
23.9505
26.004
28.1961
30.7377
33.0333
36.577
38.1611
-0.044206
-0.0427443
-0.0354213
-0.0322514
-0.0259197
-0.0214238
-0.0156159
-0.0103944
-0.00464793
9.80989
9.8144
9.8236
9.83938
9.86531
9.90262
9.95073
10.0084
10.0748
10.1492
10.2315
10.3216
10.4193
10.5247
10.6379
10.7594
10.8897
11.0276
11.1722
11.3232
11.4805
11.6437
11.8128
11.9874
12.1674
12.3524
12.5421
12.7361
12.9339
13.135
13.3389
13.5449
13.7525
13.961
14.1695
14.3774
14.5837
14.7874
14.9876
15.1833
15.3733
15.5564
15.7317
15.8977
16.0532
16.1968
16.3273
16.4432
16.5429
16.6251
16.6882
16.7311
16.7523
16.7508
16.7255
16.6758
16.6009
16.5007
16.3751
16.2244
16.0494
15.8509
15.6303
15.3895
15.1306
14.8562
14.5695
14.2741
13.9742
13.675
13.3798
13.0922
12.8182
12.5659
12.3423
12.1542
12.0086
11.9128
11.8745
11.9011
12.0006
12.1807
12.4521
12.8238
13.301
13.8904
14.6012
15.4432
16.4257
17.5584
18.8511
20.3137
21.9561
23.7878
25.8164
28.0658
30.4841
33.2656
35.8495
39.6805
41.5899
-0.0480515
-0.0446208
-0.0378488
-0.0336035
-0.0272649
-0.0222111
-0.0161749
-0.0105884
-0.00458005
10.7117
10.7167
10.7269
10.7443
10.7727
10.8136
10.8663
10.9295
11.0022
11.0839
11.1742
11.273
11.3804
11.4963
11.6212
11.7556
11.8988
12.0499
12.2084
12.3741
12.5467
12.7261
12.912
13.1042
13.3025
13.5066
13.7159
13.9301
14.1487
14.371
14.5964
14.8244
15.0543
15.2855
15.5171
15.7482
15.9779
16.205
16.4285
16.6472
16.8599
17.0654
17.2622
17.4491
17.6246
17.7871
17.9351
18.067
18.1812
18.276
18.3498
18.4009
18.428
18.4296
18.4045
18.3519
18.2708
18.1609
18.0221
17.8546
17.6589
17.4361
17.1875
16.9149
16.6207
16.3078
15.9795
15.6398
15.2934
14.9459
14.6024
14.266
13.9425
13.6413
13.3701
13.1365
12.9486
12.8143
12.742
12.7402
12.8172
12.9822
13.247
13.6202
14.1078
14.7177
15.4602
16.346
17.3855
18.5896
19.9694
21.5363
23.3018
25.277
27.4727
29.9099
32.5492
35.5643
38.4419
42.554
44.8163
-0.0518946
-0.0469115
-0.0403436
-0.0352064
-0.0287201
-0.0231404
-0.016834
-0.0108806
-0.00459986
11.6049
11.6104
11.6215
11.6404
11.6714
11.7159
11.7732
11.8419
11.921
12.0098
12.1081
12.2158
12.3329
12.4597
12.5966
12.7435
12.8994
13.0638
13.2363
13.4168
13.6051
13.8008
14.0039
14.214
14.431
14.6545
14.8839
15.1188
15.3585
15.6025
15.8502
16.1009
16.3539
16.6087
16.8642
17.1195
17.3735
17.6252
17.8731
18.1161
18.3529
18.582
18.8019
19.0111
19.208
19.3909
19.5581
19.7077
19.8379
19.9469
20.0327
20.0936
20.1277
20.1336
20.1098
20.055
19.9683
19.8491
19.6971
19.5123
19.2952
19.0468
18.7684
18.4619
18.1297
17.7749
17.4012
17.0129
16.6151
16.2136
15.8148
15.4229
15.0438
14.6864
14.3602
14.0735
13.8352
13.6542
13.5396
13.5005
13.5463
13.6878
13.936
14.3005
14.7883
15.4088
16.1729
17.0921
18.1779
19.4424
20.8981
22.5578
24.4349
26.5424
28.8941
31.5093
34.3622
37.603
40.7771
45.1636
47.8024
-0.0557545
-0.0495189
-0.0428799
-0.0369949
-0.0302538
-0.0241692
-0.0175613
-0.0112435
-0.00468775
12.4884
12.4944
12.5065
12.527
12.5605
12.6085
12.6704
12.7447
12.8302
12.9263
13.0326
13.1493
13.2763
13.4143
13.5631
13.7221
13.8906
14.0684
14.2552
14.4507
14.6548
14.8672
15.0877
15.3162
15.5522
15.7955
16.0454
16.3014
16.5629
16.8292
17.0998
17.3739
17.6509
17.9301
18.2105
18.4911
18.7706
19.0479
19.3216
19.5902
19.8525
20.1067
20.3513
20.5845
20.8046
21.0097
21.1977
21.3668
21.5149
21.6398
21.7394
21.8116
21.8544
21.866
21.8445
21.7887
21.6971
21.5691
21.4039
21.2016
20.9625
20.6872
20.3772
20.0344
19.6613
19.2612
18.8381
18.3965
17.9418
17.4804
17.0191
16.5641
16.1214
15.7
15.3105
14.9621
14.6647
14.4278
14.2616
14.1761
14.1814
14.2886
14.5092
14.8544
15.3318
15.9522
16.727
17.6682
18.7884
20.1009
21.6194
23.3587
25.3338
27.5599
30.0542
32.835
35.8909
39.3474
42.8169
47.4693
50.5028
-0.0596445
-0.0523511
-0.0454465
-0.0389072
-0.0318354
-0.0252563
-0.0183371
-0.0116505
-0.00481437
13.3616
13.3681
13.3811
13.4031
13.4391
13.4908
13.5573
13.6371
13.729
13.8324
13.9469
14.0727
14.2101
14.3592
14.5194
14.6903
14.8716
15.063
15.2642
15.4749
15.6951
15.9244
16.1628
16.4099
16.6654
16.9289
17.1997
17.4774
17.7611
18.0504
18.3446
18.643
18.945
19.2496
19.5559
19.8628
20.169
20.4732
20.7739
21.0697
21.3589
21.6399
21.911
22.17
22.4152
22.6444
22.8554
23.0461
23.214
23.3568
23.4721
23.5576
23.6109
23.6298
23.6123
23.5567
23.4613
23.3251
23.1472
22.9272
22.6652
22.3619
22.0185
21.637
21.22
20.7709
20.2939
19.7939
19.2767
18.7491
18.2181
17.6916
17.1764
16.6817
16.219
15.7994
15.4332
15.1308
14.903
14.7605
14.7136
14.7744
14.9569
15.2719
15.7283
16.3373
17.1108
18.0616
19.203
20.5495
22.1164
23.9198
25.9769
28.3054
30.9256
33.8565
37.1006
40.7595
44.5181
49.4257
52.8645
-0.0635486
-0.0553086
-0.0479726
-0.0408666
-0.0334346
-0.0264349
-0.0191623
-0.0121032
-0.00496556
14.2235
14.2304
14.2443
14.2679
14.3064
14.3617
14.4328
14.5183
14.6167
14.7274
14.8502
14.9855
15.1331
15.2928
15.4643
15.6473
15.8416
16.0467
16.2625
16.4888
16.7253
16.9719
17.2284
17.4945
17.7698
18.0539
18.3461
18.6459
18.9526
19.2655
19.5841
19.9077
20.2355
20.5665
20.8999
21.2342
21.5684
21.9008
22.2301
22.5545
22.8725
23.1821
23.4814
23.7684
24.0408
24.2963
24.5325
24.747
24.937
25.1001
25.2334
25.3344
25.4003
25.4286
25.4169
25.363
25.2652
25.1217
24.9315
24.6939
24.4086
24.0761
23.6976
23.2749
22.8107
22.3085
21.7728
21.2088
20.6229
20.0221
19.4143
18.8078
18.2111
17.634
17.0876
16.5848
16.1381
15.7588
15.4571
15.2444
15.1329
15.1372
15.2714
15.5453
15.9692
16.5545
17.3138
18.2604
19.4086
20.7737
22.3724
24.2223
26.3429
28.7542
31.48
34.5416
37.9539
41.7977
45.8322
50.9807
54.8255
-0.0673915
-0.0583028
-0.0504771
-0.0428176
-0.0349935
-0.027552
-0.0199835
-0.0125869
-0.00514447
15.0732
15.0806
15.0954
15.1205
15.1615
15.2204
15.2962
15.3873
15.4923
15.6105
15.742
15.8865
16.044
16.2143
16.3972
16.5925
16.7997
17.0188
17.2494
17.4914
17.7445
18.0087
18.2837
18.5691
18.8646
19.1697
19.4838
19.8063
20.1365
20.4739
20.8178
21.1674
21.5219
21.8805
22.242
22.6051
22.9684
23.3306
23.6899
24.0447
24.3932
24.7333
25.063
25.38
25.682
25.9662
26.2301
26.4709
26.6858
26.8717
27.0257
27.1447
27.2257
27.2658
27.2621
27.212
27.1133
26.9639
26.7622
26.5072
26.1983
25.8357
25.4202
24.9538
24.4389
23.8794
23.2797
22.6456
21.9837
21.3019
20.6087
19.9134
19.2259
18.5564
17.9162
17.3189
16.7783
16.3071
15.9173
15.6218
15.4353
15.3732
15.4471
15.6678
16.0463
16.5948
17.326
18.2538
19.393
20.7598
22.3718
24.2483
26.4107
28.8819
31.6891
34.8567
38.4115
42.4169
46.706
52.0759
56.3144
-0.0714686
-0.0611568
-0.0529645
-0.0447152
-0.0364855
-0.0286284
-0.02076
-0.0130589
-0.00535089
15.9098
15.9177
15.9334
15.9601
16.0035
16.0659
16.1465
16.2434
16.3552
16.4811
16.6209
16.7745
16.9418
17.1228
17.3172
17.5248
17.7453
17.9784
18.224
18.4819
18.752
19.034
19.3277
19.6328
19.9489
20.2754
20.6119
20.9577
21.3122
21.6747
22.0447
22.4213
22.8036
23.1908
23.5816
23.9747
24.3687
24.7621
25.1531
25.5401
25.9209
26.2937
26.656
27.0055
27.3394
27.655
27.9494
28.2194
28.462
28.6738
28.8514
28.9915
29.0905
29.1451
29.152
29.1081
29.0106
28.8569
28.6449
28.3731
28.0405
27.6469
27.1929
26.6801
26.1111
25.4895
24.8201
24.1091
23.3635
22.5918
21.8033
21.0084
20.2182
19.4444
18.6993
17.996
17.3489
16.7728
16.2824
15.893
15.6203
15.478
15.4782
15.6324
15.9522
16.45
17.1386
18.0319
19.1453
20.4952
22.1003
23.9811
26.1609
28.6651
31.5247
34.768
38.4324
42.5691
47.081
52.6457
57.2494
-0.0751475
-0.0638247
-0.0552496
-0.0464561
-0.0378276
-0.0295961
-0.0214507
-0.0134929
-0.00556881
16.7325
16.7408
16.7574
16.7856
16.8314
16.8973
16.9829
17.0859
17.2045
17.3378
17.4858
17.6485
17.8258
18.0176
18.2235
18.4435
18.6773
18.9247
19.1855
19.4596
19.7468
20.0469
20.3597
20.6848
21.0218
21.3702
21.7296
22.0993
22.4787
22.8672
23.2641
23.6686
24.0798
24.4967
24.918
25.3425
25.7686
26.1948
26.6193
27.0403
27.4556
27.8632
28.2606
28.645
29.0136
29.3634
29.6912
29.9937
30.2672
30.5083
30.713
30.8776
30.998
31.0705
31.0911
31.0563
30.9624
30.8066
30.5859
30.2983
29.9423
29.5171
29.023
28.4613
27.8343
27.1458
26.4007
25.6054
24.7674
23.896
23.0013
22.0948
21.1889
20.2966
19.4319
18.6094
17.8444
17.1527
16.5501
16.0537
15.6809
15.4448
15.3577
15.432
15.6794
16.1121
16.743
17.5859
18.6556
19.9692
21.5454
23.4059
25.5756
28.082
30.96
34.2418
37.9748
42.2038
46.8945
52.6174
57.5375
-0.0786873
-0.0662627
-0.057304
-0.0479741
-0.0389638
-0.0304028
-0.0220247
-0.0138729
-0.00579528
17.5404
17.5492
17.5666
17.5962
17.6443
17.714
17.8049
17.914
18.0392
18.1799
18.3361
18.5079
18.6951
18.8977
19.1153
19.3478
19.595
19.8568
20.1329
20.4234
20.728
21.0465
21.3786
21.724
22.0824
22.4532
22.836
23.2302
23.6352
24.0504
24.4751
24.9084
25.3495
25.7972
26.2504
26.7076
27.1674
27.628
28.0878
28.5448
28.9969
29.4416
29.8765
30.2986
30.7049
31.092
31.4566
31.7949
32.1031
32.3772
32.6129
32.8058
32.9516
33.0458
33.0838
33.0614
32.9744
32.8191
32.5919
32.29
31.9112
31.4543
30.9188
30.3057
29.6171
28.8566
28.0292
27.1416
26.202
25.2201
24.2072
23.176
22.1403
21.1147
20.1152
19.1584
18.2617
17.4421
16.7129
16.0942
15.6089
15.2658
15.078
15.059
15.2203
15.5739
16.132
16.9078
17.9159
19.1726
20.6968
22.5105
24.6396
27.1135
29.9703
33.2465
36.9974
41.2694
46.0804
51.9114
57.0752
-0.0818281
-0.0683521
-0.0590041
-0.0491529
-0.039807
-0.0309821
-0.0224375
-0.0141708
-0.00601963
18.3325
18.3418
18.3601
18.391
18.4415
18.5154
18.6117
18.7269
18.8584
19.0064
19.1708
19.3517
19.5489
19.7623
19.9916
20.2367
20.4975
20.7737
21.0654
21.3724
21.6945
22.0316
22.3834
22.7495
23.1296
23.5233
23.93
24.3493
24.7806
25.2233
25.6766
26.1397
26.6117
27.0914
27.5777
28.0691
28.564
29.0609
29.558
30.0531
30.5441
31.0285
31.5036
31.9663
32.4133
32.8412
33.2461
33.6242
33.9711
34.2824
34.5534
34.7792
34.9548
35.075
35.1347
35.1289
35.0526
34.9012
34.6702
34.3562
33.9559
33.4673
32.8896
32.2228
31.469
30.6313
29.7149
28.7265
27.675
26.571
25.4268
24.2565
23.0755
21.9005
20.7494
19.6411
18.5966
17.6314
16.7635
16.0126
15.3978
14.9337
14.6308
14.5055
14.5676
14.8281
15.2987
15.9915
16.9198
18.099
19.5472
21.2859
23.3415
25.7444
28.5352
31.7541
35.4633
39.7143
44.571
50.4423
55.7502
-0.0842762
-0.0699925
-0.0602279
-0.0498775
-0.0402678
-0.0312624
-0.0226376
-0.014353
-0.00622727
19.1081
19.1178
19.1369
19.1691
19.2221
19.3006
19.4025
19.5234
19.6613
19.8165
19.9892
20.1792
20.3863
20.6105
20.8516
21.1094
21.3837
21.6746
21.9819
22.3056
22.6455
23.0014
23.3731
23.7602
24.1625
24.5794
25.0106
25.4556
25.9138
26.3846
26.8673
27.3611
27.865
28.378
28.8986
29.4256
29.9575
30.4924
31.0287
31.5642
32.0965
32.6233
33.1414
33.6478
34.139
34.6112
35.0604
35.4824
35.8724
36.2256
36.5367
36.8004
37.0108
37.1623
37.2488
37.2644
37.2034
37.06
36.8289
36.5055
36.0856
35.5664
34.946
34.2239
33.4013
32.4812
31.4685
30.3703
29.196
27.957
26.6671
25.3418
23.9983
22.6555
21.3342
20.0597
18.8483
17.7202
16.6955
15.7947
15.0364
14.4361
14.0077
13.7638
13.7137
13.8683
14.2376
14.832
15.6632
16.7446
18.0927
19.7277
21.6752
23.9653
26.64
29.7421
33.3401
37.4909
42.2982
48.1201
53.4437
-0.0856668
-0.0710698
-0.0608137
-0.0500346
-0.0402461
-0.0311614
-0.0225647
-0.0143804
-0.00640006
19.8663
19.8764
19.8963
19.9298
19.9857
20.0688
20.1762
20.3026
20.4469
20.6094
20.7903
20.9893
21.2065
21.4416
21.6944
21.9649
22.2529
22.5585
22.8816
23.2221
23.5799
23.9548
24.3466
24.755
25.1797
25.6203
26.0765
26.5477
27.0334
27.5331
28.0461
28.5714
29.1083
29.6555
30.2119
30.776
31.3464
31.9213
32.4988
33.0769
33.6532
34.225
34.7892
35.3426
35.8815
36.402
36.8997
37.3701
37.8082
38.2084
38.565
38.8721
39.1232
39.3117
39.4308
39.4737
39.4334
39.3031
39.0765
38.7476
38.3111
37.763
37.1002
36.3213
35.4268
34.419
33.3027
32.0851
30.776
29.388
27.9363
26.4384
24.9135
23.38
21.8734
20.4101
19.0116
17.701
16.501
15.4328
14.5157
13.766
13.1978
12.8229
12.6505
12.6879
12.9437
13.4262
14.1444
15.1089
16.3339
17.8365
19.6404
21.7736
24.2781
27.1969
30.6033
34.5589
39.197
44.8549
50.0335
-0.0855494
-0.071502
-0.0605876
-0.0495042
-0.0396298
-0.0305877
-0.0221503
-0.0142074
-0.00651577
20.6061
20.6166
20.6374
20.6723
20.7313
20.8192
20.9319
21.0638
21.2144
21.3842
21.5733
21.7814
22.0085
22.2544
22.519
22.8022
23.104
23.4244
23.7633
24.1207
24.4965
24.8906
25.3028
25.7328
26.1802
26.6449
27.1264
27.6243
28.1381
28.6674
29.2113
29.7691
30.3398
30.9225
31.5159
32.1187
32.7293
33.346
33.967
34.59
35.2128
35.8324
36.4459
37.0497
37.6402
38.2132
38.764
39.2878
39.7791
40.2319
40.6401
40.9968
41.295
41.5273
41.6858
41.7626
41.7497
41.6389
41.4225
41.0931
40.6441
40.0697
39.3658
38.5296
37.5604
36.4598
35.2322
33.8848
32.4281
30.8755
29.2441
27.5541
25.8292
24.0768
22.3635
20.6886
19.0805
17.5661
16.1705
14.9167
13.8247
12.9116
12.191
11.6739
11.3687
11.2805
11.4132
11.7724
12.3641
13.1954
14.276
15.6193
17.245
19.1769
21.4544
24.1177
27.2415
30.8881
35.2112
40.5618
45.402
-0.0833468
-0.0713264
-0.0593742
-0.0481348
-0.0382842
-0.0294323
-0.021315
-0.0137817
-0.00654766
21.3267
21.3376
21.3594
21.3958
21.4581
21.5509
21.6688
21.806
21.963
22.1401
22.3372
22.5544
22.7913
23.0481
23.3245
23.6205
23.9361
24.2712
24.626
25.0004
25.3944
25.8078
26.2405
26.6922
27.1627
27.6517
28.159
28.684
29.2265
29.7858
30.3614
30.9524
31.5581
32.1774
32.8091
33.4519
34.1044
34.7648
35.4314
36.1018
36.7736
37.4441
38.1101
38.7681
39.4142
40.0441
40.6529
41.2353
41.7854
42.297
42.7632
43.1766
43.5293
43.8129
44.0186
44.1374
44.1597
44.0761
43.877
43.5535
43.0972
42.5007
41.758
40.8647
39.8188
38.6207
37.2742
35.7863
34.1678
32.4334
30.6017
28.6949
26.7356
24.7628
22.8069
20.8919
19.0481
17.3057
15.6925
14.2334
12.95
11.8595
10.9751
10.3063
9.85943
9.63833
9.64233
9.87063
10.326
11.0109
11.9298
13.0901
14.5057
16.1939
18.1878
20.5212
23.264
26.4726
30.3099
35.1583
39.4514
-0.0781884
-0.0709639
-0.0569312
-0.0457415
-0.0360465
-0.0275757
-0.0199772
-0.0130503
-0.00646603
22.0273
22.0386
22.0612
22.0993
22.1652
22.2629
22.3856
22.5283
22.6917
22.876
23.0812
23.3073
23.5542
23.8217
24.1099
24.4187
24.748
25.098
25.4688
25.8602
26.2724
26.7052
27.1585
27.6321
28.1258
28.6394
29.1727
29.7253
30.2968
30.8868
31.4947
32.1198
32.7612
33.4181
34.0894
34.7738
35.4698
36.1759
36.89
37.6102
38.3338
39.0582
39.7802
40.4961
41.2021
41.8935
42.5653
43.2119
43.8271
44.4041
44.9355
45.4132
45.8285
46.1722
46.4343
46.6042
46.671
46.6235
46.4505
46.141
45.6845
45.0716
44.2939
43.3452
42.2215
40.9218
39.4488
37.809
36.0135
34.078
32.023
29.8757
27.6542
25.4238
23.1984
21.0134
18.9049
16.9072
15.052
13.3669
11.8747
10.5931
9.53461
8.70684
8.11323
7.75386
7.62614
7.72202
8.03598
8.56636
9.31114
10.2702
11.4493
12.8565
14.5147
16.4463
18.7088
21.3431
24.5023
28.5792
32.1245
-0.06847
-0.0721312
-0.0520269
-0.0420521
-0.0326798
-0.0248664
-0.0180423
-0.0119561
-0.00623621
22.707
22.7187
22.7422
22.7821
22.8516
22.9541
23.0817
23.2298
23.3996
23.5911
23.8044
24.0394
24.296
24.5743
24.8742
25.1957
25.5389
25.9037
26.2903
26.6988
27.1292
27.5814
28.0554
28.551
29.0681
29.6065
30.1661
30.7465
31.3475
31.9687
32.6095
33.2693
33.9474
34.6429
35.3549
36.0822
36.8234
37.5768
38.3407
39.113
39.8911
40.6724
41.4538
42.2316
43.0017
43.7595
44.4997
45.2165
45.9033
46.5529
47.1573
47.7079
48.1951
48.6086
48.9371
49.1688
49.291
49.2906
49.1542
48.8688
48.4212
47.7995
46.9927
45.9918
44.7906
43.3861
41.7792
39.9759
37.987
35.8287
33.5226
31.0983
28.5986
26.0672
23.5356
21.0453
18.6383
16.3545
14.2302
12.2963
10.5776
9.09194
7.85084
6.85942
6.11744
5.62034
5.36052
5.32643
5.50206
5.87624
6.4414
7.18839
8.1127
9.21016
10.4896
11.9579
13.6506
15.5826
17.8656
20.8064
23.4159
-0.0511451
-0.0771976
-0.0427224
-0.0375529
-0.0279705
-0.0211884
-0.015447
-0.0104704
-0.00583729
23.3652
23.3773
23.4016
23.4435
23.5168
23.6238
23.7561
23.9098
24.0859
24.2845
24.5058
24.7495
25.0159
25.3049
25.6165
25.9506
26.3075
26.6871
27.0896
27.5151
27.9637
28.4353
28.93
29.4476
29.9881
30.5514
31.1375
31.746
32.3768
33.0296
33.7038
34.3989
35.1144
35.8495
36.6034
37.3748
38.1626
38.9652
39.7808
40.6075
41.4428
42.2842
43.1285
43.972
44.8108
45.6399
46.4541
47.2473
48.0126
48.7425
49.4285
50.0613
50.6305
51.1247
51.5314
51.837
52.0271
52.0866
51.9998
51.7509
51.3239
50.7035
49.8757
48.8281
47.5515
46.0401
44.2928
42.314
40.1144
37.7104
35.124
32.3865
29.5636
26.6924
23.8136
20.9768
18.232
15.6265
13.2024
10.9951
9.03157
7.32998
5.90015
4.74391
3.85634
3.22715
2.84202
2.68412
2.73234
2.95798
3.34662
3.88044
4.54232
5.31348
6.18434
7.14405
8.19923
9.33392
10.5903
12.1173
13.4411
-0.0199515
-0.0820023
-0.0269985
-0.0323391
-0.0211261
-0.0163571
-0.0121111
-0.00858474
-0.00526428
24.001
24.0136
24.0388
24.0827
24.1598
24.2713
24.4082
24.5673
24.7496
24.9554
25.1844
25.4369
25.7129
26.0125
26.3356
26.6823
27.0527
27.4471
27.8654
28.3078
28.7745
29.2654
29.7807
30.3203
30.8843
31.4726
32.0852
32.7221
33.3829
34.0675
34.7756
35.5066
36.2602
37.0357
37.8324
38.6491
39.4849
40.3382
41.2074
42.0907
42.9859
43.8903
44.8009
45.7143
46.6261
47.5317
48.4256
49.3016
50.1528
50.9712
51.7479
52.4731
53.1354
53.7224
54.2202
54.6136
54.8862
55.0208
54.999
54.8018
54.4098
53.804
52.9663
51.8804
50.533
48.9146
47.0211
44.8551
42.4268
39.7527
36.8539
33.7511
30.5588
27.3012
24.0262
20.7937
17.6645
14.6956
11.9369
9.42912
7.20213
5.27422
3.65274
2.33509
1.31033
0.561118
0.0654331
-0.202094
-0.267842
-0.168831
0.057138
0.387741
0.793244
1.23709
1.68491
2.11091
2.49073
2.78639
2.90659
3.25356
2.96572
0.0140927
-0.130647
-0.0147348
-0.027151
-0.0114814
-0.0103947
-0.00805477
-0.00621353
-0.0045331
24.614
24.6269
24.653
24.699
24.7799
24.8957
25.0371
25.2016
25.3901
25.6027
25.8395
26.1006
26.3861
26.696
27.0305
27.3897
27.7736
28.1824
28.6164
29.0756
29.5603
30.0705
30.6063
31.1678
31.7551
32.3684
33.0076
33.6728
34.3638
35.0806
35.8228
36.5902
37.3824
38.199
39.0392
39.9023
40.7872
41.6928
42.6174
43.5595
44.5169
45.4872
46.4676
47.4545
48.4439
49.4311
50.4106
51.3762
52.3209
53.2364
54.1137
54.9421
55.7096
56.4026
57.0058
57.5027
57.8748
58.1021
58.1634
58.0362
57.6972
57.1229
56.2903
55.1781
53.7677
52.0448
50.001
47.6362
44.9602
41.9919
38.7533
35.1982
31.5935
27.8961
24.1654
20.4773
16.9073
13.5254
10.3917
7.55381
5.04475
2.88253
1.0709
-0.398831
-1.54529
-2.39444
-2.97749
-3.3294
-3.48678
-3.49051
-3.39408
-3.24434
-3.07211
-2.93383
-2.89996
-3.01904
-3.37224
-4.06542
-5.07419
0.257141
0.288262
0.115012
0.0346097
0.0321367
-0.00123123
0.00344766
-0.00314987
-0.00346945
-0.00372207
-0.00366429
25.2032
25.2167
25.2436
25.2916
25.3762
25.4962
25.6421
25.8118
26.0063
26.2257
26.4702
26.7397
27.0344
27.3546
27.7003
28.0717
28.4688
28.8921
29.3415
29.8173
30.3198
30.849
31.4052
31.9885
32.599
33.2371
33.9029
34.5964
35.3176
36.0666
36.8431
37.6472
38.4784
39.3366
40.2211
41.1314
42.0665
43.0255
44.0072
45.0099
46.032
47.071
48.1243
49.1885
50.2598
51.3336
52.4046
53.4667
54.5127
55.5345
56.5225
57.4657
58.3512
59.1645
59.8894
60.5073
60.9978
61.3382
61.5041
61.4691
61.2053
60.6839
59.8761
58.7542
57.293
55.4715
53.2754
50.7002
47.7543
44.4663
40.9052
36.7039
32.6845
28.4828
24.2209
20.0022
15.9222
12.0676
8.51191
5.31121
2.5021
0.101282
-1.89293
-3.49761
-4.7414
-5.66084
-6.29823
-6.69941
-6.91234
-6.98822
-6.97618
-6.9682
-6.98931
-7.12073
-7.39147
-7.96342
-8.90564
-10.4322
-12.4545
0.15015
0.266753
0.0923186
0.0643512
0.0408345
0.0145222
0.0119237
0.00256536
0.00048868
-0.00157788
-0.00287332
25.7682
25.7821
25.8099
25.8599
25.9482
26.0722
26.2224
26.3972
26.5976
26.8236
27.0755
27.3532
27.6571
27.9873
28.3439
28.7272
29.1374
29.5748
30.0394
30.5316
31.0516
31.5997
32.176
32.7808
33.4144
34.0771
34.7692
35.4909
36.2423
37.0234
37.8344
38.6752
39.5457
40.4457
41.375
42.333
43.3192
44.3329
45.3729
46.4381
47.5268
48.637
49.7661
50.9112
52.0687
53.2341
54.4024
55.5677
56.7231
57.8604
58.9697
60.0396
61.057
62.0063
62.8702
63.6286
64.2589
64.7358
65.0314
65.1149
64.9533
64.5117
63.7543
62.6454
61.1514
59.2425
56.8957
54.098
50.8506
47.1688
43.0786
38.5738
33.9053
29.0743
24.1781
19.3334
14.6573
10.2577
6.22474
2.62547
-0.500034
-3.13811
-5.29879
-7.0109
-8.31613
-9.2646
-9.9117
-10.3156
-10.5358
-10.6371
-10.665
-10.7307
-10.848
-11.1573
-11.6701
-12.6348
-14.0242
-16.43
-18.9078
0.0558467
0.179345
0.0562946
0.0658083
0.0354326
0.0201755
0.0143287
0.00556592
0.00275548
-0.000179191
-0.00221132
26.3082
26.3226
26.3512
26.4031
26.4949
26.6228
26.7772
26.9569
27.163
27.3956
27.6546
27.9404
28.2531
28.593
28.9604
29.3554
29.7783
30.2294
30.7089
31.2172
31.7545
32.321
32.9171
33.5432
34.1996
34.8866
35.6048
36.3544
37.1356
37.9488