/*--------------------------------*- C++ -*----------------------------------*\
| =========                 |                                                 |
| \\      /  F ield         | OpenFOAM: The Open Source CFD Toolbox           |
|  \\    /   O peration     | Version:  v2106                                 |
|   \\  /    A nd           | Website:  www.openfoam.com                      |
|    \\/     M anipulation  |                                                 |
\*---------------------------------------------------------------------------*/
FoamFile
{
    version     2.0;
    format      ascii;
    arch        "LSB;label=32;scalar=64";
    class       surfaceScalarField;
    location    "0.8";
    object      phi;
}
// * * * * * * * * * * * * * * * * * * * * * * * * * * * * * * * * * * * * * //

dimensions      [0 3 -1 0 0 0 0];

oriented        oriented;

internalField   nonuniform List<scalar> 
59425
(
-3.02562e-09
-2.39746e-06
-6.26711e-09
-2.41313e-06
-9.51286e-09
-2.41772e-06
-1.26908e-08
-2.42303e-06
-1.5851e-08
-2.43001e-06
-1.90299e-08
-2.43919e-06
-2.22375e-08
-2.45092e-06
-2.54698e-08
-2.46527e-06
-2.87201e-08
-2.48218e-06
-3.19835e-08
-2.50152e-06
-3.52585e-08
-2.52318e-06
-3.85451e-08
-2.54709e-06
-4.18441e-08
-2.57322e-06
-4.5156e-08
-2.60154e-06
-4.84806e-08
-2.63205e-06
-5.18171e-08
-2.66474e-06
-5.51639e-08
-2.69961e-06
-5.85193e-08
-2.73663e-06
-6.18827e-08
-2.77581e-06
-6.52541e-08
-2.8171e-06
-6.86237e-08
-2.86052e-06
-7.19476e-08
-2.90613e-06
-7.51784e-08
-2.95396e-06
-7.8289e-08
-3.00398e-06
-8.12585e-08
-3.05619e-06
-8.40849e-08
-3.11059e-06
-8.67791e-08
-3.16712e-06
-8.93547e-08
-3.22576e-06
-9.18269e-08
-3.28647e-06
-9.42132e-08
-3.34922e-06
-9.65129e-08
-3.41393e-06
-9.87281e-08
-3.48055e-06
-1.00877e-07
-3.54905e-06
-1.02971e-07
-3.61937e-06
-1.05012e-07
-3.69143e-06
-1.06997e-07
-3.76516e-06
-1.08922e-07
-3.84047e-06
-1.1078e-07
-3.91727e-06
-1.12567e-07
-3.99545e-06
-1.14272e-07
-4.0749e-06
-1.15888e-07
-4.15552e-06
-1.17404e-07
-4.23716e-06
-1.18812e-07
-4.31969e-06
-1.20099e-07
-4.40297e-06
-1.21256e-07
-4.48685e-06
-1.22269e-07
-4.57115e-06
-1.23129e-07
-4.6557e-06
-1.23823e-07
-4.74034e-06
-1.24339e-07
-4.82486e-06
-1.24666e-07
-4.90907e-06
-1.24794e-07
-4.99278e-06
-1.24713e-07
-5.07579e-06
-1.24413e-07
-5.15789e-06
-1.23888e-07
-5.23889e-06
-1.23133e-07
-5.31857e-06
-1.22144e-07
-5.39674e-06
-1.20925e-07
-5.47322e-06
-1.19483e-07
-5.54783e-06
-1.17834e-07
-5.6204e-06
-1.16014e-07
-5.69079e-06
-1.14032e-07
-5.7588e-06
-1.11862e-07
-5.82425e-06
-1.095e-07
-5.8871e-06
-1.06957e-07
-5.94743e-06
-1.04219e-07
-6.00518e-06
-1.01235e-07
-6.06029e-06
-9.79506e-08
-6.11273e-06
-9.43196e-08
-6.1625e-06
-9.02971e-08
-6.20966e-06
-8.58643e-08
-6.25432e-06
-8.10645e-08
-6.29667e-06
-7.59963e-08
-6.33695e-06
-7.07791e-08
-6.37545e-06
-6.55179e-08
-6.41269e-06
-6.02842e-08
-6.44917e-06
-5.51318e-08
-6.48527e-06
-5.01105e-08
-6.52134e-06
-4.52636e-08
-6.55778e-06
-4.06259e-08
-6.59501e-06
-3.62218e-08
-6.63346e-06
-3.20662e-08
-6.67357e-06
-2.819e-08
-6.71571e-06
-2.4608e-08
-6.76039e-06
-2.13283e-08
-6.80811e-06
-1.83745e-08
-6.85923e-06
-1.5724e-08
-6.91394e-06
-1.33015e-08
-6.97233e-06
-1.10127e-08
-7.03439e-06
-8.70731e-09
-7.10006e-06
-6.16425e-09
-7.16925e-06
-3.08282e-09
-7.24173e-06
9.444e-10
-7.31706e-06
6.48832e-09
-7.39456e-06
1.43363e-08
-7.47315e-06
2.54714e-08
-7.55134e-06
4.1246e-08
-7.63149e-06
6.18601e-08
-7.7109e-06
8.72947e-08
-7.82285e-06
1.24395e-07
-7.96253e-06
-8.96437e-07
-1.07206e-05
-1.34393e-05
-5.53608e-05
-1.6019e-05
-1.7968e-05
-1.64801e-05
-1.55647e-05
-1.58977e-05
-9.30096e-06
-1.56631e-05
-9.08686e-06
-1.58847e-05
-7.23101e-06
-1.64972e-05
-6.20522e-06
-1.65577e-05
-4.01374e-06
-1.62281e-05
-2.09645e-06
-4.63001e-07
-4.34145e-09
-2.39312e-06
-8.69555e-09
-2.40878e-06
-1.3022e-08
-2.4134e-06
-1.73411e-08
-2.41871e-06
-2.16795e-08
-2.42567e-06
-2.6054e-08
-2.43482e-06
-3.04619e-08
-2.44651e-06
-3.48927e-08
-2.46084e-06
-3.93372e-08
-2.47773e-06
-4.37909e-08
-2.49707e-06
-4.82532e-08
-2.51872e-06
-5.2725e-08
-2.54262e-06
-5.7207e-08
-2.56874e-06
-6.16991e-08
-2.59705e-06
-6.61996e-08
-2.62755e-06
-7.07052e-08
-2.66024e-06
-7.52105e-08
-2.6951e-06
-7.97089e-08
-2.73214e-06
-8.41965e-08
-2.77132e-06
-8.86588e-08
-2.81264e-06
-9.30514e-08
-2.85613e-06
-9.7317e-08
-2.90187e-06
-1.01421e-07
-2.94985e-06
-1.05368e-07
-3.00003e-06
-1.09174e-07
-3.05239e-06
-1.12855e-07
-3.10691e-06
-1.16423e-07
-3.16355e-06
-1.19887e-07
-3.2223e-06
-1.23261e-07
-3.2831e-06
-1.26564e-07
-3.34592e-06
-1.29805e-07
-3.41069e-06
-1.3299e-07
-3.47736e-06
-1.36125e-07
-3.54591e-06
-1.39206e-07
-3.61629e-06
-1.42221e-07
-3.68842e-06
-1.45155e-07
-3.76223e-06
-1.4799e-07
-3.83763e-06
-1.50711e-07
-3.91455e-06
-1.53299e-07
-3.99286e-06
-1.55736e-07
-4.07247e-06
-1.58004e-07
-4.15325e-06
-1.60082e-07
-4.23508e-06
-1.61952e-07
-4.31782e-06
-1.63595e-07
-4.40133e-06
-1.6499e-07
-4.48545e-06
-1.66118e-07
-4.57002e-06
-1.66961e-07
-4.65486e-06
-1.67501e-07
-4.7398e-06
-1.67721e-07
-4.82463e-06
-1.67606e-07
-4.90918e-06
-1.67144e-07
-4.99324e-06
-1.66324e-07
-5.07661e-06
-1.65139e-07
-5.15908e-06
-1.63584e-07
-5.24044e-06
-1.61661e-07
-5.32049e-06
-1.59377e-07
-5.39903e-06
-1.56743e-07
-5.47586e-06
-1.53782e-07
-5.55079e-06
-1.50528e-07
-5.62366e-06
-1.47037e-07
-5.69428e-06
-1.43361e-07
-5.76247e-06
-1.39527e-07
-5.82808e-06
-1.35561e-07
-5.89107e-06
-1.31491e-07
-5.9515e-06
-1.27327e-07
-6.00935e-06
-1.23069e-07
-6.06455e-06
-1.18714e-07
-6.11708e-06
-1.14249e-07
-6.16697e-06
-1.09635e-07
-6.21428e-06
-1.04839e-07
-6.25912e-06
-9.98886e-08
-6.30162e-06
-9.48945e-08
-6.34194e-06
-8.99976e-08
-6.38034e-06
-8.53304e-08
-6.41735e-06
-8.09885e-08
-6.45351e-06
-7.70504e-08
-6.4892e-06
-7.35915e-08
-6.5248e-06
-7.06749e-08
-6.5607e-06
-6.83445e-08
-6.59734e-06
-6.66201e-08
-6.63519e-06
-6.55137e-08
-6.67467e-06
-6.5049e-08
-6.71618e-06
-6.52345e-08
-6.7602e-06
-6.60618e-08
-6.80728e-06
-6.75117e-08
-6.85778e-06
-6.9515e-08
-6.91194e-06
-7.19383e-08
-6.96991e-06
-7.45849e-08
-7.03174e-06
-7.71826e-08
-7.09746e-06
-7.93888e-08
-7.16705e-06
-8.07743e-08
-7.24035e-06
-8.0774e-08
-7.31706e-06
-7.85956e-08
-7.39674e-06
-7.31015e-08
-7.47864e-06
-6.22966e-08
-7.56215e-06
-4.36781e-08
-7.65011e-06
-1.14465e-08
-7.74313e-06
6.09252e-08
-7.89522e-06
1.68598e-07
-8.07021e-06
-9.90364e-07
-9.56162e-06
-1.38521e-05
-4.24991e-05
-1.53191e-05
-1.6501e-05
-1.44669e-05
-1.64169e-05
-1.41797e-05
-9.58812e-06
-1.39337e-05
-9.33294e-06
-1.43385e-05
-6.82619e-06
-1.48824e-05
-5.66136e-06
-1.50712e-05
-3.82491e-06
-1.48796e-05
-2.2881e-06
-8.64982e-07
-6.13318e-09
-2.38698e-06
-1.22334e-08
-2.40268e-06
-1.82855e-08
-2.40734e-06
-2.4332e-08
-2.41267e-06
-3.04062e-08
-2.4196e-06
-3.65203e-08
-2.42871e-06
-4.26699e-08
-2.44036e-06
-4.88445e-08
-2.45466e-06
-5.50351e-08
-2.47154e-06
-6.12373e-08
-2.49086e-06
-6.74498e-08
-2.51251e-06
-7.36729e-08
-2.5364e-06
-7.99064e-08
-2.5625e-06
-8.61487e-08
-2.59081e-06
-9.23963e-08
-2.6213e-06
-9.86429e-08
-2.65399e-06
-1.04878e-07
-2.68887e-06
-1.11087e-07
-2.72593e-06
-1.17261e-07
-2.76515e-06
-1.23369e-07
-2.80653e-06
-1.29367e-07
-2.85013e-06
-1.35258e-07
-2.89598e-06
-1.41078e-07
-2.94403e-06
-1.46853e-07
-2.99426e-06
-1.52599e-07
-3.04664e-06
-1.58317e-07
-3.10119e-06
-1.64001e-07
-3.15787e-06
-1.69642e-07
-3.21665e-06
-1.75229e-07
-3.27751e-06
-1.8075e-07
-3.34039e-06
-1.86181e-07
-3.40526e-06
-1.91493e-07
-3.47205e-06
-1.96673e-07
-3.54073e-06
-2.01708e-07
-3.61125e-06
-2.06585e-07
-3.68354e-06
-2.11284e-07
-3.75753e-06
-2.15782e-07
-3.83314e-06
-2.20056e-07
-3.91027e-06
-2.24081e-07
-3.98883e-06
-2.27829e-07
-4.06872e-06
-2.31273e-07
-4.1498e-06
-2.34384e-07
-4.23197e-06
-2.37133e-07
-4.31507e-06
-2.39491e-07
-4.39897e-06
-2.41428e-07
-4.48351e-06
-2.42917e-07
-4.56853e-06
-2.4393e-07
-4.65385e-06
-2.44442e-07
-4.73928e-06
-2.44428e-07
-4.82465e-06
-2.43867e-07
-4.90975e-06
-2.42743e-07
-4.99437e-06
-2.41041e-07
-5.07831e-06
-2.38754e-07
-5.16137e-06
-2.35878e-07
-5.24332e-06
-2.32417e-07
-5.32395e-06
-2.28382e-07
-5.40306e-06
-2.23792e-07
-5.48045e-06
-2.18675e-07
-5.55591e-06
-2.1307e-07
-5.62926e-06
-2.07022e-07
-5.70032e-06
-2.00563e-07
-5.76893e-06
-1.93712e-07
-5.83493e-06
-1.86531e-07
-5.89825e-06
-1.79144e-07
-5.95889e-06
-1.71677e-07
-6.01682e-06
-1.64245e-07
-6.07198e-06
-1.56963e-07
-6.12437e-06
-1.49927e-07
-6.174e-06
-1.43201e-07
-6.22101e-06
-1.36794e-07
-6.26553e-06
-1.30713e-07
-6.30771e-06
-1.25024e-07
-6.34763e-06
-1.19818e-07
-6.38555e-06
-1.15202e-07
-6.42197e-06
-1.11292e-07
-6.45742e-06
-1.08193e-07
-6.4923e-06
-1.06007e-07
-6.52699e-06
-1.04824e-07
-6.56188e-06
-1.04708e-07
-6.59746e-06
-1.05696e-07
-6.6342e-06
-1.07816e-07
-6.67255e-06
-1.11101e-07
-6.71289e-06
-1.15563e-07
-6.75574e-06
-1.21134e-07
-6.80171e-06
-1.27654e-07
-6.85126e-06
-1.34875e-07
-6.90472e-06
-1.42485e-07
-6.96229e-06
-1.50145e-07
-7.02408e-06
-1.57484e-07
-7.09013e-06
-1.64093e-07
-7.16044e-06
-1.69508e-07
-7.23493e-06
-1.73184e-07
-7.31338e-06
-1.74473e-07
-7.39545e-06
-1.72568e-07
-7.48055e-06
-1.6637e-07
-7.56835e-06
-1.55743e-07
-7.66074e-06
-1.3797e-07
-7.7609e-06
-1.15902e-07
-7.91729e-06
-1.03838e-07
-8.08227e-06
-7.59935e-07
-8.90552e-06
-8.83119e-06
-3.44279e-05
-9.78936e-06
-1.55428e-05
-1.09507e-05
-1.52556e-05
-1.17435e-05
-8.7953e-06
-1.21869e-05
-8.88959e-06
-1.26942e-05
-6.31889e-06
-1.31156e-05
-5.23996e-06
-1.33672e-05
-3.57336e-06
-1.34213e-05
-2.23398e-06
-9.53363e-07
-8.1332e-09
-2.37885e-06
-1.62511e-08
-2.39456e-06
-2.43139e-08
-2.39928e-06
-3.23623e-08
-2.40462e-06
-4.04305e-08
-2.41153e-06
-4.85331e-08
-2.4206e-06
-5.66699e-08
-2.43222e-06
-6.48341e-08
-2.4465e-06
-7.30191e-08
-2.46336e-06
-8.12208e-08
-2.48266e-06
-8.94373e-08
-2.50429e-06
-9.76678e-08
-2.52817e-06
-1.05911e-07
-2.55426e-06
-1.14164e-07
-2.58255e-06
-1.22423e-07
-2.61304e-06
-1.30679e-07
-2.64573e-06
-1.3892e-07
-2.68063e-06
-1.47134e-07
-2.71772e-06
-1.55321e-07
-2.75696e-06
-1.63478e-07
-2.79837e-06
-1.71607e-07
-2.842e-06
-1.79725e-07
-2.88786e-06
-1.87832e-07
-2.93593e-06
-1.95905e-07
-2.98618e-06
-2.03933e-07
-3.03861e-06
-2.11915e-07
-3.09321e-06
-2.19841e-07
-3.14994e-06
-2.27701e-07
-3.2088e-06
-2.35477e-07
-3.26973e-06
-2.4315e-07
-3.33272e-06
-2.50692e-07
-3.39772e-06
-2.58074e-07
-3.46467e-06
-2.65268e-07
-3.53354e-06
-2.7225e-07
-3.60427e-06
-2.78994e-07
-3.6768e-06
-2.8547e-07
-3.75105e-06
-2.91647e-07
-3.82696e-06
-2.97493e-07
-3.90442e-06
-3.02972e-07
-3.98335e-06
-3.08049e-07
-4.06364e-06
-3.12686e-07
-4.14517e-06
-3.16845e-07
-4.22781e-06
-3.20487e-07
-4.31143e-06
-3.23574e-07
-4.39589e-06
-3.26066e-07
-4.48102e-06
-3.27925e-07
-4.56667e-06
-3.29117e-07
-4.65266e-06
-3.29608e-07
-4.73879e-06
-3.29365e-07
-4.82489e-06
-3.28363e-07
-4.91075e-06
-3.26579e-07
-4.99615e-06
-3.23996e-07
-5.0809e-06
-3.20604e-07
-5.16476e-06
-3.16399e-07
-5.24752e-06
-3.11388e-07
-5.32896e-06
-3.05586e-07
-5.40887e-06
-2.99018e-07
-5.48702e-06
-2.91721e-07
-5.56321e-06
-2.83741e-07
-5.63724e-06
-2.75135e-07
-5.70893e-06
-2.65961e-07
-5.7781e-06
-2.56281e-07
-5.84461e-06
-2.46183e-07
-5.90835e-06
-2.35803e-07
-5.96927e-06
-2.25299e-07
-6.02732e-06
-2.14819e-07
-6.08246e-06
-2.04501e-07
-6.13469e-06
-1.94474e-07
-6.18403e-06
-1.84887e-07
-6.23059e-06
-1.75891e-07
-6.27452e-06
-1.67655e-07
-6.31594e-06
-1.60334e-07
-6.35495e-06
-1.54013e-07
-6.39187e-06
-1.48758e-07
-6.42723e-06
-1.44665e-07
-6.46151e-06
-1.41847e-07
-6.49512e-06
-1.40422e-07
-6.52841e-06
-1.40496e-07
-6.56181e-06
-1.42154e-07
-6.5958e-06
-1.45455e-07
-6.6309e-06
-1.50414e-07
-6.66759e-06
-1.57007e-07
-6.7063e-06
-1.65185e-07
-6.74756e-06
-1.74798e-07
-6.79209e-06
-1.85574e-07
-6.84048e-06
-1.9716e-07
-6.89313e-06
-2.09152e-07
-6.9503e-06
-2.2112e-07
-7.01211e-06
-2.32622e-07
-7.07862e-06
-2.43201e-07
-7.14986e-06
-2.52369e-07
-7.22576e-06
-2.59602e-07
-7.30615e-06
-2.64357e-07
-7.3907e-06
-2.66079e-07
-7.47882e-06
-2.64204e-07
-7.57022e-06
-2.59889e-07
-7.66505e-06
-2.52322e-07
-7.76847e-06
-2.5121e-07
-7.9184e-06
-2.55737e-07
-8.07774e-06
-5.65093e-07
-8.59617e-06
-6.22308e-06
-2.87699e-05
-6.89923e-06
-1.48667e-05
-8.63081e-06
-1.3524e-05
-9.70712e-06
-7.71901e-06
-1.04397e-05
-8.15706e-06
-1.10823e-05
-5.67624e-06
-1.15512e-05
-4.77113e-06
-1.18768e-05
-3.24772e-06
-1.20053e-05
-2.10552e-06
-9.69817e-07
-1.02031e-08
-2.36865e-06
-2.04281e-08
-2.38434e-06
-3.06136e-08
-2.3891e-06
-4.07844e-08
-2.39445e-06
-5.09665e-08
-2.40135e-06
-6.1174e-08
-2.4104e-06
-7.14109e-08
-2.42199e-06
-8.16753e-08
-2.43623e-06
-9.19637e-08
-2.45307e-06
-1.02274e-07
-2.47235e-06
-1.12604e-07
-2.49396e-06
-1.22952e-07
-2.51782e-06
-1.33317e-07
-2.54389e-06
-1.43696e-07
-2.57217e-06
-1.54084e-07
-2.60266e-06
-1.64474e-07
-2.63535e-06
-1.74856e-07
-2.67025e-06
-1.85236e-07
-2.70734e-06
-1.95622e-07
-2.74657e-06
-2.06016e-07
-2.78798e-06
-2.16401e-07
-2.83162e-06
-2.26772e-07
-2.87749e-06
-2.37121e-07
-2.92558e-06
-2.47432e-07
-2.97587e-06
-2.57689e-07
-3.02836e-06
-2.67879e-07
-3.08302e-06
-2.77985e-07
-3.13983e-06
-2.8799e-07
-3.19879e-06
-2.97871e-07
-3.25985e-06
-3.07603e-07
-3.32299e-06
-3.17157e-07
-3.38816e-06
-3.26499e-07
-3.45533e-06
-3.35597e-07
-3.52444e-06
-3.44417e-07
-3.59545e-06
-3.52925e-07
-3.66829e-06
-3.61083e-07
-3.7429e-06
-3.68851e-07
-3.81919e-06
-3.76187e-07
-3.89709e-06
-3.83047e-07
-3.97649e-06
-3.89386e-07
-4.0573e-06
-3.95156e-07
-4.1394e-06
-4.00309e-07
-4.22266e-06
-4.04796e-07
-4.30694e-06
-4.08568e-07
-4.39212e-06
-4.11577e-07
-4.47801e-06
-4.13775e-07
-4.56447e-06
-4.15118e-07
-4.65131e-06
-4.15562e-07
-4.73835e-06
-4.15069e-07
-4.82538e-06
-4.13606e-07
-4.91221e-06
-4.11144e-07
-4.99861e-06
-4.07663e-07
-5.08438e-06
-4.0315e-07
-5.16927e-06
-3.97603e-07
-5.25307e-06
-3.91028e-07
-5.33554e-06
-3.83446e-07
-5.41645e-06
-3.7489e-07
-5.49557e-06
-3.65404e-07
-5.57269e-06
-3.5505e-07
-5.64759e-06
-3.43903e-07
-5.72008e-06
-3.32048e-07
-5.78996e-06
-3.19584e-07
-5.85707e-06
-3.06633e-07
-5.9213e-06
-2.9335e-07
-5.98255e-06
-2.79911e-07
-6.04076e-06
-2.66497e-07
-6.09588e-06
-2.53286e-07
-6.1479e-06
-2.4046e-07
-6.19686e-06
-2.28199e-07
-6.24286e-06
-2.16684e-07
-6.28604e-06
-2.06155e-07
-6.32647e-06
-1.96868e-07
-6.36424e-06
-1.88996e-07
-6.39974e-06
-1.82664e-07
-6.43356e-06
-1.77977e-07
-6.4662e-06
-1.75058e-07
-6.49804e-06
-1.74042e-07
-6.52943e-06
-1.75051e-07
-6.5608e-06
-1.78185e-07
-6.59267e-06
-1.83507e-07
-6.62558e-06
-1.9102e-07
-6.66008e-06
-2.00638e-07
-6.69668e-06
-2.12264e-07
-6.73594e-06
-2.25683e-07
-6.77867e-06
-2.40529e-07
-6.82563e-06
-2.56373e-07
-6.87729e-06
-2.72757e-07
-6.93392e-06
-2.89199e-07
-6.99567e-06
-3.05196e-07
-7.06263e-06
-3.20223e-07
-7.13483e-06
-3.33718e-07
-7.21227e-06
-3.45092e-07
-7.29477e-06
-3.53762e-07
-7.38203e-06
-3.59161e-07
-7.47343e-06
-3.60827e-07
-7.56856e-06
-3.59846e-07
-7.66603e-06
-3.56579e-07
-7.77174e-06
-3.60805e-07
-7.91418e-06
-3.64985e-07
-8.07356e-06
-4.76279e-07
-8.48487e-06
-4.43541e-06
-2.48107e-05
-4.85845e-06
-1.44437e-05
-6.7777e-06
-1.16048e-05
-8.00142e-06
-6.4953e-06
-8.92996e-06
-7.22853e-06
-9.65281e-06
-4.9534e-06
-1.0167e-05
-4.25699e-06
-1.05369e-05
-2.87776e-06
-1.07308e-05
-1.91165e-06
-9.06951e-07
-1.23092e-08
-2.35634e-06
-2.46723e-08
-2.37198e-06
-3.70143e-08
-2.37676e-06
-4.93468e-08
-2.38212e-06
-6.16866e-08
-2.38901e-06
-7.40457e-08
-2.39804e-06
-8.64299e-08
-2.4096e-06
-9.88408e-08
-2.42382e-06
-1.11278e-07
-2.44063e-06
-1.23742e-07
-2.45989e-06
-1.3623e-07
-2.48147e-06
-1.48742e-07
-2.50531e-06
-1.61277e-07
-2.53136e-06
-1.73831e-07
-2.55962e-06
-1.864e-07
-2.59009e-06
-1.98979e-07
-2.62277e-06
-2.11565e-07
-2.65766e-06
-2.24173e-07
-2.69473e-06
-2.36797e-07
-2.73395e-06
-2.49418e-07
-2.77536e-06
-2.62023e-07
-2.81902e-06
-2.74607e-07
-2.86491e-06
-2.87157e-07
-2.91303e-06
-2.9966e-07
-2.96337e-06
-3.12095e-07
-3.01592e-06
-3.24446e-07
-3.07066e-06
-3.36689e-07
-3.12759e-06
-3.48803e-07
-3.18668e-06
-3.60759e-07
-3.2479e-06
-3.72527e-07
-3.31122e-06
-3.84073e-07
-3.37662e-06
-3.9536e-07
-3.44404e-06
-4.06348e-07
-3.51345e-06
-4.16998e-07
-3.5848e-06
-4.27264e-07
-3.65802e-06
-4.37101e-07
-3.73306e-06
-4.46462e-07
-3.80983e-06
-4.55294e-07
-3.88826e-06
-4.63544e-07
-3.96824e-06
-4.71156e-07
-4.04969e-06
-4.78074e-07
-4.13248e-06
-4.84239e-07
-4.21649e-06
-4.8959e-07
-4.30159e-06
-4.94069e-07
-4.38764e-06
-4.97616e-07
-4.47447e-06
-5.00174e-07
-4.56192e-06
-5.01688e-07
-4.6498e-06
-5.02104e-07
-4.73793e-06
-5.01377e-07
-4.82611e-06
-4.99465e-07
-4.91412e-06
-4.96332e-07
-5.00175e-06
-4.91954e-07
-5.08875e-06
-4.86315e-07
-5.17491e-06
-4.79409e-07
-5.25997e-06
-4.71247e-07
-5.3437e-06
-4.61851e-07
-5.42584e-06
-4.51261e-07
-5.50616e-06
-4.39531e-07
-5.58442e-06
-4.26737e-07
-5.66039e-06
-4.1297e-07
-5.73384e-06
-3.98341e-07
-5.80459e-06
-3.82979e-07
-5.87244e-06
-3.67038e-07
-5.93724e-06
-3.50701e-07
-5.99889e-06
-3.34173e-07
-6.05729e-06
-3.17672e-07
-6.11238e-06
-3.01423e-07
-6.16415e-06
-2.8566e-07
-6.21263e-06
-2.70614e-07
-6.2579e-06
-2.56522e-07
-6.30013e-06
-2.43672e-07
-6.33932e-06
-2.32346e-07
-6.37557e-06
-2.2277e-07
-6.40932e-06
-2.15158e-07
-6.44117e-06
-2.09668e-07
-6.47169e-06
-2.06455e-07
-6.50126e-06
-2.05675e-07
-6.53021e-06
-2.07476e-07
-6.559e-06
-2.11976e-07
-6.58817e-06
-2.19242e-07
-6.61831e-06
-2.29267e-07
-6.65005e-06
-2.41917e-07
-6.68403e-06
-2.57009e-07
-6.72084e-06
-2.74287e-07
-6.7614e-06
-2.93338e-07
-6.80658e-06
-3.13697e-07
-6.85693e-06
-3.34872e-07
-6.91274e-06
-3.56334e-07
-6.97421e-06
-3.77499e-07
-7.04146e-06
-3.97731e-07
-7.1146e-06
-4.16343e-07
-7.19365e-06
-4.32606e-07
-7.27851e-06
-4.45779e-07
-7.36885e-06
-4.55095e-07
-7.46411e-06
-4.59864e-07
-7.56379e-06
-4.60309e-07
-7.66559e-06
-4.56395e-07
-7.77565e-06
-4.56441e-07
-7.91413e-06
-4.48489e-07
-8.08152e-06
-4.64761e-07
-8.4686e-06
-3.29596e-06
-2.19795e-05
-3.60129e-06
-1.41383e-05
-5.48231e-06
-9.72377e-06
-6.66378e-06
-5.31384e-06
-7.66817e-06
-6.22415e-06
-8.41214e-06
-4.20944e-06
-8.9552e-06
-3.71395e-06
-9.3466e-06
-2.48637e-06
-9.569e-06
-1.68926e-06
-8.11602e-07
-1.44335e-08
-2.34191e-06
-2.89455e-08
-2.35747e-06
-4.34506e-08
-2.36225e-06
-5.79524e-08
-2.36762e-06
-7.24612e-08
-2.3745e-06
-8.69865e-08
-2.38351e-06
-1.01535e-07
-2.39505e-06
-1.1611e-07
-2.40925e-06
-1.30715e-07
-2.42603e-06
-1.45349e-07
-2.44525e-06
-1.60014e-07
-2.4668e-06
-1.74709e-07
-2.49061e-06
-1.89432e-07
-2.51664e-06
-2.04182e-07
-2.54487e-06
-2.18954e-07
-2.57532e-06
-2.33746e-07
-2.60798e-06
-2.48562e-07
-2.64285e-06
-2.63403e-07
-2.67989e-06
-2.78251e-07
-2.7191e-06
-2.93082e-07
-2.76053e-06
-3.07895e-07
-2.8042e-06
-3.2268e-07
-2.85012e-06
-3.37426e-07
-2.89828e-06
-3.52114e-07
-2.94868e-06
-3.66725e-07
-3.00131e-06
-3.81235e-07
-3.05615e-06
-3.9562e-07
-3.11321e-06
-4.0985e-07
-3.17245e-06
-4.23893e-07
-3.23385e-06
-4.37715e-07
-3.2974e-06
-4.51277e-07
-3.36306e-06
-4.64534e-07
-3.43078e-06
-4.77443e-07
-3.50055e-06
-4.89954e-07
-3.57229e-06
-5.02016e-07
-3.64596e-06
-5.13574e-07
-3.7215e-06
-5.24571e-07
-3.79883e-06
-5.34946e-07
-3.87788e-06
-5.44636e-07
-3.95855e-06
-5.53576e-07
-4.04075e-06
-5.61696e-07
-4.12436e-06
-5.68927e-07
-4.20926e-06
-5.75199e-07
-4.29532e-06
-5.8044e-07
-4.3824e-06
-5.8458e-07
-4.47033e-06
-5.8755e-07
-4.55895e-06
-5.89284e-07
-4.64807e-06
-5.89718e-07
-4.7375e-06
-5.88796e-07
-4.82703e-06
-5.86467e-07
-4.91645e-06
-5.82689e-07
-5.00552e-06
-5.77428e-07
-5.09401e-06
-5.70665e-07
-5.18167e-06
-5.62393e-07
-5.26824e-06
-5.5262e-07
-5.35347e-06
-5.41371e-07
-5.43709e-06
-5.2869e-07
-5.51885e-06
-5.14642e-07
-5.59847e-06
-4.99313e-07
-5.67572e-06
-4.82813e-07
-5.75034e-06
-4.65275e-07
-5.82213e-06
-4.46855e-07
-5.89086e-06
-4.27738e-07
-5.95636e-06
-4.08138e-07
-6.01849e-06
-3.88295e-07
-6.07713e-06
-3.68468e-07
-6.13221e-06
-3.48929e-07
-6.18369e-06
-3.29966e-07
-6.23159e-06
-3.11869e-07
-6.276e-06
-2.94939e-07
-6.31706e-06
-2.79515e-07
-6.35475e-06
-2.65915e-07
-6.38917e-06
-2.54421e-07
-6.42081e-06
-2.45322e-07
-6.45027e-06
-2.38859e-07
-6.47815e-06
-2.35227e-07
-6.50489e-06
-2.34604e-07
-6.53083e-06
-2.37158e-07
-6.55644e-06
-2.43023e-07
-6.5823e-06
-2.52266e-07
-6.60907e-06
-2.64858e-07
-6.63746e-06
-2.80626e-07
-6.66826e-06
-2.99307e-07
-6.70216e-06
-3.20621e-07
-6.74008e-06
-3.44159e-07
-6.78304e-06
-3.69446e-07
-6.83164e-06
-3.95964e-07
-6.88622e-06
-4.23118e-07
-6.94705e-06
-4.50217e-07
-7.01436e-06
-4.7649e-07
-7.08833e-06
-5.01092e-07
-7.16905e-06
-5.23124e-07
-7.25648e-06
-5.41625e-07
-7.35035e-06
-5.55494e-07
-7.45024e-06
-5.63584e-07
-7.5557e-06
-5.65288e-07
-7.66388e-06
-5.59065e-07
-7.78187e-06
-5.52236e-07
-7.92096e-06
-5.3115e-07
-8.1026e-06
-5.00371e-07
-8.49938e-06
-2.60002e-06
-1.98799e-05
-2.86895e-06
-1.38694e-05
-4.5859e-06
-8.00683e-06
-5.65113e-06
-4.24862e-06
-6.6562e-06
-5.21909e-06
-7.38097e-06
-3.48469e-06
-7.93248e-06
-3.16244e-06
-8.32775e-06
-2.09111e-06
-8.56301e-06
-1.45401e-06
-7.01186e-07
-1.65653e-08
-2.32534e-06
-3.32287e-08
-2.34081e-06
-4.9895e-08
-2.34559e-06
-6.65635e-08
-2.35095e-06
-8.32407e-08
-2.35782e-06
-9.9934e-08
-2.36682e-06
-1.1665e-07
-2.37834e-06
-1.33395e-07
-2.3925e-06
-1.50173e-07
-2.40925e-06
-1.66985e-07
-2.42844e-06
-1.83833e-07
-2.44996e-06
-2.00718e-07
-2.47373e-06
-2.17639e-07
-2.49972e-06
-2.34593e-07
-2.52792e-06
-2.51578e-07
-2.55833e-06
-2.68593e-07
-2.59096e-06
-2.85643e-07
-2.6258e-06
-3.02706e-07
-2.66283e-06
-3.19769e-07
-2.70204e-06
-3.36816e-07
-2.74348e-06
-3.53843e-07
-2.78718e-06
-3.70842e-07
-2.83312e-06
-3.87796e-07
-2.88133e-06
-4.04687e-07
-2.93179e-06
-4.21491e-07
-2.9845e-06
-4.38183e-07
-3.03946e-06
-4.54733e-07
-3.09666e-06
-4.71108e-07
-3.15607e-06
-4.87272e-07
-3.21769e-06
-5.03185e-07
-3.28149e-06
-5.18801e-07
-3.34744e-06
-5.34073e-07
-3.41551e-06
-5.48947e-07
-3.48567e-06
-5.6337e-07
-3.55787e-06
-5.7728e-07
-3.63205e-06
-5.90616e-07
-3.70816e-06
-6.03309e-07
-3.78614e-06
-6.1529e-07
-3.8659e-06
-6.26486e-07
-3.94736e-06
-6.3682e-07
-4.03041e-06
-6.46211e-07
-4.11497e-06
-6.5458e-07
-4.20089e-06
-6.61843e-07
-4.28806e-06
-6.67917e-07
-4.37632e-06
-6.7272e-07
-4.46553e-06
-6.76168e-07
-4.5555e-06
-6.78185e-07
-4.64605e-06
-6.78695e-07
-4.73699e-06
-6.7763e-07
-4.8281e-06
-6.74927e-07
-4.91915e-06
-6.70536e-07
-5.00991e-06
-6.64415e-07
-5.10013e-06
-6.56538e-07
-5.18955e-06
-6.46892e-07
-5.27789e-06
-6.35483e-07
-5.36488e-06
-6.22338e-07
-5.45024e-06
-6.07503e-07
-5.53368e-06
-5.91052e-07
-5.61492e-06
-5.73082e-07
-5.69369e-06
-5.53718e-07
-5.76971e-06
-5.33115e-07
-5.84273e-06
-5.11454e-07
-5.91252e-06
-4.88953e-07
-5.97886e-06
-4.65857e-07
-6.04158e-06
-4.42445e-07
-6.10054e-06
-4.19019e-07
-6.15563e-06
-3.95904e-07
-6.2068e-06
-3.73442e-07
-6.25405e-06
-3.51989e-07
-6.29745e-06
-3.31907e-07
-6.33714e-06
-3.13576e-07
-6.37308e-06
-2.97363e-07
-6.40538e-06
-2.83626e-07
-6.43455e-06
-2.72736e-07
-6.46116e-06
-2.65043e-07
-6.48584e-06
-2.60808e-07
-6.50912e-06
-2.60236e-07
-6.5314e-06
-2.63501e-07
-6.55318e-06
-2.70731e-07
-6.57507e-06
-2.81978e-07
-6.59782e-06
-2.97181e-07
-6.62226e-06
-3.16149e-07
-6.64929e-06
-3.38586e-07
-6.67972e-06
-3.64197e-07
-6.71447e-06
-3.9261e-07
-6.75463e-06
-4.23356e-07
-6.80089e-06
-4.55879e-07
-6.8537e-06
-4.89496e-07
-6.91344e-06
-5.23397e-07
-6.98046e-06
-5.56666e-07
-7.05506e-06
-5.88307e-07
-7.13741e-06
-6.17232e-07
-7.22755e-06
-6.42174e-07
-7.32541e-06
-6.61549e-07
-7.43087e-06
-6.73705e-07
-7.54354e-06
-6.77505e-07
-7.66008e-06
-6.70206e-07
-7.78917e-06
-6.57432e-07
-7.93373e-06
-6.26159e-07
-8.13387e-06
-5.71161e-07
-8.55438e-06
-2.18019e-06
-1.82709e-05
-2.45915e-06
-1.35905e-05
-3.97366e-06
-6.49233e-06
-4.90257e-06
-3.31973e-06
-5.8633e-06
-4.25837e-06
-6.54405e-06
-2.80396e-06
-7.08479e-06
-2.62171e-06
-7.46803e-06
-1.70788e-06
-7.70294e-06
-1.21912e-06
-5.88696e-07
-1.86987e-08
-2.30664e-06
-3.75123e-08
-2.32199e-06
-5.63353e-08
-2.32677e-06
-7.5165e-08
-2.33212e-06
-9.40057e-08
-2.33898e-06
-1.12864e-07
-2.34796e-06
-1.31747e-07
-2.35946e-06
-1.50662e-07
-2.37359e-06
-1.69613e-07
-2.3903e-06
-1.88604e-07
-2.40945e-06
-2.07638e-07
-2.43092e-06
-2.26716e-07
-2.45465e-06
-2.45838e-07
-2.48059e-06
-2.65001e-07
-2.50875e-06
-2.84206e-07
-2.53913e-06
-3.0345e-07
-2.57172e-06
-3.22719e-07
-2.60653e-06
-3.42002e-07
-2.64354e-06
-3.61285e-07
-2.68276e-06
-3.8056e-07
-2.72421e-06
-3.99819e-07
-2.76792e-06
-4.1905e-07
-2.81389e-06
-4.38236e-07
-2.86214e-06
-4.57354e-07
-2.91267e-06
-4.7638e-07
-2.96548e-06
-4.95284e-07
-3.02056e-06
-5.14033e-07
-3.07791e-06
-5.32591e-07
-3.13751e-06
-5.50916e-07
-3.19936e-06
-5.68963e-07
-3.26344e-06
-5.86683e-07
-3.32972e-06
-6.0402e-07
-3.39818e-06
-6.20917e-07
-3.46877e-06
-6.3731e-07
-3.54147e-06
-6.53132e-07
-3.61623e-06
-6.68311e-07
-3.69299e-06
-6.82771e-07
-3.77168e-06
-6.96432e-07
-3.85224e-06
-7.0921e-07
-3.93458e-06
-7.21017e-07
-4.01861e-06
-7.31762e-07
-4.10422e-06
-7.41351e-07
-4.1913e-06
-7.49688e-07
-4.27972e-06
-7.56678e-07
-4.36933e-06
-7.62224e-07
-4.45998e-06
-7.6623e-07
-4.55149e-06
-7.68605e-07
-4.64368e-06
-7.69259e-07
-4.73633e-06
-7.68112e-07
-4.82925e-06
-7.65089e-07
-4.92218e-06
-7.60127e-07
-5.01488e-06
-7.53174e-07
-5.10709e-06
-7.44195e-07
-5.19853e-06
-7.33171e-07
-5.28891e-06
-7.20103e-07
-5.37795e-06
-7.05016e-07
-5.46533e-06
-6.87959e-07
-5.55074e-06
-6.69011e-07
-5.63387e-06
-6.48278e-07
-5.71442e-06
-6.25902e-07
-5.79208e-06
-6.02055e-07
-5.86657e-06
-5.76947e-07
-5.93762e-06
-5.50824e-07
-6.00498e-06
-5.23968e-07
-6.06844e-06
-4.96698e-07
-6.12781e-06
-4.69365e-07
-6.18297e-06
-4.42348e-07
-6.23382e-06
-4.16053e-07
-6.28035e-06
-3.90904e-07
-6.3226e-06
-3.67333e-07
-6.36071e-06
-3.45757e-07
-6.39465e-06
-3.26584e-07
-6.42455e-06
-3.10258e-07
-6.45088e-06
-2.97231e-07
-6.47418e-06
-2.87962e-07
-6.49511e-06
-2.82821e-07
-6.51426e-06
-2.82067e-07
-6.53215e-06
-2.85881e-07
-6.54936e-06
-2.94374e-07
-6.56658e-06
-3.07568e-07
-6.58463e-06
-3.25382e-07
-6.60445e-06
-3.47634e-07
-6.62704e-06
-3.74053e-07
-6.6533e-06
-4.04325e-07
-6.6842e-06
-4.3812e-07
-6.72083e-06
-4.74973e-07
-6.76404e-06
-5.14272e-07
-6.8144e-06
-5.55238e-07
-6.87247e-06
-5.96943e-07
-6.93875e-06
-6.38339e-07
-7.01366e-06
-6.78281e-07
-7.09747e-06
-7.1544e-07
-7.1904e-06
-7.48111e-07
-7.29274e-06
-7.74267e-07
-7.40471e-06
-7.92016e-07
-7.52579e-06
-7.99629e-07
-7.65247e-06
-7.93736e-07
-7.79506e-06
-7.77999e-07
-7.94947e-06
-7.40567e-07
-8.17131e-06
-6.72832e-07
-8.62211e-06
-1.93912e-06
-1.70046e-05
-2.23955e-06
-1.329e-05
-3.55396e-06
-5.17794e-06
-4.3602e-06
-2.51349e-06
-5.2564e-06
-3.3622e-06
-5.88482e-06
-2.17555e-06
-6.40238e-06
-2.10416e-06
-6.76504e-06
-1.34522e-06
-6.99304e-06
-9.91123e-07
-4.81036e-07
-2.08302e-08
-2.28581e-06
-4.17903e-08
-2.30103e-06
-6.27647e-08
-2.30579e-06
-8.37493e-08
-2.31114e-06
-1.04748e-07
-2.31799e-06
-1.25766e-07
-2.32695e-06
-1.46812e-07
-2.33841e-06
-1.67894e-07
-2.35251e-06
-1.89017e-07
-2.36917e-06
-2.10187e-07
-2.38828e-06
-2.31407e-07
-2.4097e-06
-2.52679e-07
-2.43338e-06
-2.74003e-07
-2.45927e-06
-2.9538e-07
-2.48738e-06
-3.16806e-07
-2.5177e-06
-3.38269e-07
-2.55026e-06
-3.59751e-07
-2.58505e-06
-3.81258e-07
-2.62204e-06
-4.02777e-07
-2.66124e-06
-4.24298e-07
-2.70269e-06
-4.4581e-07
-2.7464e-06
-4.67297e-07
-2.7924e-06
-4.8874e-07
-2.8407e-06
-5.10115e-07
-2.89129e-06
-5.31394e-07
-2.9442e-06
-5.52545e-07
-2.9994e-06
-5.73532e-07
-3.05692e-06
-5.94315e-07
-3.11673e-06
-6.14847e-07
-3.17883e-06
-6.3508e-07
-3.24321e-06
-6.54957e-07
-3.30985e-06
-6.74419e-07
-3.37872e-06
-6.934e-07
-3.44979e-06
-7.11831e-07
-3.52304e-06
-7.29636e-07
-3.59842e-06
-7.46735e-07
-3.67589e-06
-7.63042e-07
-3.75537e-06
-7.78467e-07
-3.83681e-06
-7.92915e-07
-3.92013e-06
-8.06287e-07
-4.00524e-06
-8.18478e-07
-4.09203e-06
-8.29382e-07
-4.1804e-06
-8.38891e-07
-4.27021e-06
-8.46893e-07
-4.36133e-06
-8.53277e-07
-4.4536e-06
-8.57933e-07
-4.54684e-06
-8.60754e-07
-4.64086e-06
-8.61635e-07
-4.73545e-06
-8.60481e-07
-4.8304e-06
-8.57201e-07
-4.92545e-06
-8.5172e-07
-5.02036e-06
-8.43972e-07
-5.11483e-06
-8.33911e-07
-5.20859e-06
-8.21509e-07
-5.30132e-06
-8.0676e-07
-5.3927e-06
-7.89684e-07
-5.4824e-06
-7.70331e-07
-5.57009e-06
-7.48782e-07
-5.65542e-06
-7.25153e-07
-5.73805e-06
-6.99596e-07
-5.81764e-06
-6.72306e-07
-5.89387e-06
-6.43514e-07
-5.96641e-06
-6.13499e-07
-6.035e-06
-5.8258e-07
-6.09936e-06
-5.51119e-07
-6.15927e-06
-5.19517e-07
-6.21457e-06
-4.88215e-07
-6.26512e-06
-4.57686e-07
-6.31087e-06
-4.28433e-07
-6.35186e-06
-4.00972e-07
-6.38817e-06
-3.75783e-07
-6.41984e-06
-3.53298e-07
-6.44704e-06
-3.34044e-07
-6.47013e-06
-3.18546e-07
-6.48968e-06
-3.07344e-07
-6.50631e-06
-3.0092e-07
-6.52069e-06
-2.9962e-07
-6.53345e-06
-3.03669e-07
-6.54532e-06
-3.1318e-07
-6.55707e-06
-3.28169e-07
-6.56964e-06
-3.48566e-07
-6.58405e-06
-3.74229e-07
-6.60138e-06
-4.04925e-07
-6.62261e-06
-4.40319e-07
-6.6488e-06
-4.80097e-07
-6.68106e-06
-5.23791e-07
-6.72035e-06
-5.70728e-07
-6.76747e-06
-6.20037e-07
-6.82316e-06
-6.70685e-07
-6.88811e-06
-7.21506e-07
-6.96284e-06
-7.71192e-07
-7.04778e-06
-8.18086e-07
-7.1435e-06
-8.60064e-07
-7.25076e-06
-8.94888e-07
-7.36989e-06
-9.20431e-07
-7.50025e-06
-9.34221e-07
-7.63868e-06
-9.32671e-07
-7.79661e-06
-9.17653e-07
-7.96449e-06
-8.78251e-07
-8.21071e-06
-8.04455e-07
-8.69591e-06
-1.82164e-06
-1.59874e-05
-2.13711e-06
-1.29746e-05
-3.2714e-06
-4.04367e-06
-3.98214e-06
-1.80277e-06
-4.80852e-06
-2.53583e-06
-5.38358e-06
-1.6005e-06
-5.87067e-06
-1.6171e-06
-6.20755e-06
-1.00834e-06
-6.42481e-06
-7.73871e-07
-3.81689e-07
-2.29574e-08
-2.26286e-06
-4.6059e-08
-2.27794e-06
-6.91786e-08
-2.28267e-06
-9.23115e-08
-2.28801e-06
-1.15461e-07
-2.29484e-06
-1.38634e-07
-2.30377e-06
-1.61838e-07
-2.31521e-06
-1.85083e-07
-2.32926e-06
-2.08375e-07
-2.34588e-06
-2.31721e-07
-2.36493e-06
-2.55126e-07
-2.3863e-06
-2.78592e-07
-2.40991e-06
-3.0212e-07
-2.43574e-06
-3.25711e-07
-2.46379e-06
-3.4935e-07
-2.49406e-06
-3.73014e-07
-2.5266e-06
-3.96718e-07
-2.56134e-06
-4.20464e-07
-2.59829e-06
-4.44237e-07
-2.63747e-06
-4.68025e-07
-2.6789e-06
-4.91812e-07
-2.72262e-06
-5.1558e-07
-2.76863e-06
-5.39309e-07
-2.81697e-06
-5.62972e-07
-2.86763e-06
-5.8654e-07
-2.92063e-06
-6.09977e-07
-2.97597e-06
-6.33245e-07
-3.03365e-06
-6.56298e-07
-3.09368e-06
-6.79089e-07
-3.15604e-06
-7.01562e-07
-3.22074e-06
-7.23658e-07
-3.28775e-06
-7.45309e-07
-3.35706e-06
-7.66446e-07