/*--------------------------------*- C++ -*----------------------------------*\
| =========                 |                                                 |
| \\      /  F ield         | OpenFOAM: The Open Source CFD Toolbox           |
|  \\    /   O peration     | Version:  v2106                                 |
|   \\  /    A nd           | Website:  www.openfoam.com                      |
|    \\/     M anipulation  |                                                 |
\*---------------------------------------------------------------------------*/
FoamFile
{
    version     2.0;
    format      ascii;
    arch        "LSB;label=32;scalar=64";
    class       volVectorField;
    location    "0.8";
    object      U;
}
// * * * * * * * * * * * * * * * * * * * * * * * * * * * * * * * * * * * * * //

dimensions      [0 1 -1 0 0 0 0];

internalField   nonuniform List<vector> 
29678
(
(-0.020004 3.3132e-24 -1.20665e-05)
(-0.0201364 3.01837e-23 -3.81767e-05)
(-0.0201747 2.37967e-22 -6.58418e-05)
(-0.0202183 1.50099e-20 -9.25863e-05)
(-0.0202763 9.56792e-20 -0.000118928)
(-0.020353 1.11952e-19 -0.0001453)
(-0.0204509 1.05205e-19 -0.000171904)
(-0.0205707 1.29126e-19 -0.000198745)
(-0.0207118 -2.20236e-19 -0.000225764)
(-0.0208731 9.15595e-20 -0.000252907)
(-0.0210537 -2.00796e-19 -0.00028015)
(-0.021253 9.25542e-20 -0.000307488)
(-0.0214708 -1.86734e-19 -0.000334926)
(-0.021707 9.73822e-20 -0.00036247)
(-0.0219613 -2.36139e-19 -0.000390122)
(-0.0222338 1.04344e-19 -0.000417879)
(-0.0225245 -2.26084e-19 -0.000445729)
(-0.0228331 -2.68779e-19 -0.000473659)
(-0.0231596 1.03998e-19 -0.000501656)
(-0.0235038 -2.46615e-19 -0.00052972)
(-0.0238656 -2.79337e-19 -0.000557843)
(-0.0242453 -2.65332e-19 -0.000585787)
(-0.0246431 -1.20045e-20 -0.000613324)
(-0.025059 -1.22425e-20 -0.000639801)
(-0.0254929 -1.20365e-19 -0.000665075)
(-0.025945 -6.20261e-20 -0.000689198)
(-0.0264151 -1.07426e-19 -0.000712182)
(-0.0269027 1.22705e-19 -0.000734118)
(-0.0274078 -2.59499e-19 -0.000755126)
(-0.02793 -2.86373e-19 -0.000775351)
(-0.0284685 -2.74167e-19 -0.000794812)
(-0.029023 -1.58123e-20 -0.000813609)
(-0.0295932 -5.57796e-20 -0.0008318)
(-0.0301788 1.10834e-19 -0.00084948)
(-0.0307789 1.75149e-19 -0.000866706)
(-0.0313928 1.31021e-19 -0.000883481)
(-0.0320199 1.74163e-19 -0.000899779)
(-0.0326593 1.39166e-19 -0.000915555)
(-0.0333102 1.27835e-19 -0.000930757)
(-0.0339717 1.97896e-19 -0.00094532)
(-0.0346427 1.36875e-19 -0.000959176)
(-0.0353222 2.00768e-19 -0.000972247)
(-0.0360091 1.33362e-19 -0.000984452)
(-0.0367021 2.05714e-19 -0.000995703)
(-0.0374 1.53453e-19 -0.00100591)
(-0.0381013 -1.99634e-19 -0.00101498)
(-0.0388047 1.8509e-19 -0.00102281)
(-0.0395086 1.70509e-19 -0.0010293)
(-0.0402114 2.29281e-19 -0.00103437)
(-0.0409116 1.66562e-19 -0.00103791)
(-0.0416076 2.10899e-19 -0.00103983)
(-0.0422976 2.5374e-19 -0.00104005)
(-0.04298 2.7799e-19 -0.00103848)
(-0.043653 1.76518e-19 -0.00103506)
(-0.0443151 1.38837e-20 -0.00102974)
(-0.0449647 2.53267e-19 -0.00102248)
(-0.0456001 1.58718e-19 -0.00101328)
(-0.04622 2.45891e-19 -0.00100217)
(-0.046823 1.93001e-19 -0.000989261)
(-0.0474081 2.91611e-19 -0.000974759)
(-0.0479735 1.73396e-19 -0.00095884)
(-0.0485174 2.56175e-19 -0.000941538)
(-0.0490396 2.20301e-19 -0.00092273)
(-0.0495408 2.24014e-19 -0.00090236)
(-0.0500205 2.48973e-19 -0.000880355)
(-0.0504776 2.51477e-19 -0.000856619)
(-0.0509121 2.75386e-20 -0.000830701)
(-0.0513241 2.36736e-19 -0.000802084)
(-0.0517139 -5.25183e-19 -0.000770181)
(-0.0520826 2.31787e-19 -0.000734954)
(-0.0524325 -2.22274e-19 -0.000696283)
(-0.0527659 2.43446e-19 -0.000654966)
(-0.0530854 -2.77834e-19 -0.000611817)
(-0.0533954 2.11743e-19 -0.000567964)
(-0.0536996 -2.74627e-19 -0.000524136)
(-0.0540012 -2.99566e-19 -0.000480761)
(-0.0543029 2.41538e-19 -0.000438272)
(-0.054608 -2.44735e-19 -0.000397071)
(-0.05492 2.36028e-19 -0.000357483)
(-0.0552423 -5.80518e-19 -0.000319748)
(-0.0555786 2.37482e-19 -0.000284028)
(-0.0559321 -2.58078e-19 -0.000250739)
(-0.0563069 2.39241e-19 -0.000219566)
(-0.056707 -3.28211e-19 -0.000190839)
(-0.0571357 -2.27288e-19 -0.000164801)
(-0.0575942 2.04503e-19 -0.00014149)
(-0.0580826 -3.03205e-19 -0.000120534)
(-0.0586009 1.94479e-19 -0.000101193)
(-0.059148 -2.00651e-19 -8.2436e-05)
(-0.0597226 1.80858e-19 -6.27373e-05)
(-0.0603221 -5.39113e-19 -3.99799e-05)
(-0.060942 -1.70117e-20 -1.12789e-05)
(-0.0615753 1.87844e-19 2.72863e-05)
(-0.062211 -5.49238e-19 8.15595e-05)
(-0.0628354 1.56869e-19 0.000156222)
(-0.0634647 -5.58498e-19 0.000273334)
(-0.0640863 1.51245e-19 0.00040123)
(-0.0649786 -3.5015e-19 0.000657001)
(-0.0660461 4.25294e-19 0.000745447)
(-0.0978406 -2.23349e-20 0.00141777)
(-0.564723 -1.52606e-19 -0.0174529)
(-0.171016 -1.64487e-19 -0.192471)
(-0.133396 -2.05222e-19 -0.0941604)
(-0.072654 7.12924e-20 -0.164924)
(-0.0737607 -2.29549e-19 -0.111366)
(-0.0621062 -1.36486e-19 -0.141526)
(-0.0567891 -9.62805e-20 -0.129019)
(-0.0339546 3.85813e-19 -0.141906)
(-0.0147334 3.4508e-20 -0.136785)
(0.000444338 -2.96816e-19 -0.13093)
(-0.0199617 1.22584e-23 -1.79689e-05)
(-0.0200929 2.03545e-22 -5.41828e-05)
(-0.0201315 4.32558e-21 -9.0784e-05)
(-0.0201758 1.08044e-19 -0.000126637)
(-0.0202339 4.99601e-21 -0.000162541)
(-0.0203103 2.16533e-22 -0.000198783)
(-0.0204078 2.84346e-21 -0.000235393)
(-0.0205273 1.15917e-19 -0.000272253)
(-0.0206681 -1.1136e-19 -0.000309256)
(-0.0208292 -8.99055e-21 -0.000346341)
(-0.0210097 -9.63834e-20 -0.000383492)
(-0.0212089 9.33201e-20 -0.000420715)
(-0.0214266 -8.22942e-20 -0.000458021)
(-0.0216625 -9.43489e-21 -0.000495413)
(-0.0219168 -1.00254e-19 -0.000532885)
(-0.0221891 1.04537e-19 -0.000570417)
(-0.0224797 -1.19629e-19 -0.000607972)
(-0.0227882 -1.09814e-19 -0.000645497)
(-0.0231147 1.85007e-19 -0.000682944)
(-0.0234589 -1.05696e-19 -0.000720339)
(-0.0238213 -1.39659e-19 -0.000757473)
(-0.0242022 -1.24182e-19 -0.000793495)
(-0.0246013 -2.98189e-21 -0.000828372)
(-0.0250182 -1.3213e-19 -0.000861885)
(-0.0254536 -1.59344e-20 -0.000894164)
(-0.0259073 -2.49229e-19 -0.00092535)
(-0.0263789 1.28666e-19 -0.000955536)
(-0.0268681 2.45064e-19 -0.000984819)
(-0.0273745 -1.59711e-19 -0.00101329)
(-0.0278978 -1.83606e-19 -0.00104109)
(-0.0284375 -1.86932e-19 -0.0010682)
(-0.0289932 -1.22197e-20 -0.00109499)
(-0.0295644 -3.20329e-19 -0.00112138)
(-0.0301507 -1.34608e-20 -0.00114731)
(-0.0307516 1.93634e-19 -0.00117274)
(-0.0313663 7.05066e-21 -0.00119755)
(-0.0319943 6.93334e-20 -0.00122162)
(-0.0326346 5.39585e-21 -0.0012448)
(-0.0332866 -7.30719e-21 -0.00126695)
(-0.0339492 8.54901e-20 -0.00128792)
(-0.0346215 8.87261e-21 -0.00130756)
(-0.0353025 2.22208e-19 -0.00132571)
(-0.0359909 8.45397e-21 -0.0013422)
(-0.0366857 1.15976e-19 -0.00135688)
(-0.0373854 -1.70713e-20 -0.00136957)
(-0.0380888 -4.06539e-19 -0.00138013)
(-0.0387943 7.66458e-20 -0.00138838)
(-0.0395006 7.63343e-21 -0.00139418)
(-0.0402059 2.50871e-19 -0.00139738)
(-0.0409088 6.53809e-21 -0.00139785)
(-0.0416075 7.03537e-20 -0.00139548)
(-0.0423004 2.92233e-19 -0.00139016)
(-0.0429858 3.08088e-19 -0.00138183)
(-0.043662 -1.56604e-19 -0.00137042)
(-0.0443272 3.80288e-22 -0.00135594)
(-0.0449798 2.89806e-19 -0.00133841)
(-0.0456183 -1.79826e-19 -0.0013179)
(-0.0462411 8.89405e-20 -0.00129455)
(-0.0468468 8.98758e-21 -0.0012686)
(-0.047434 3.23116e-19 -0.00124042)
(-0.0480015 8.88397e-21 -0.00121034)
(-0.0485479 1.06936e-19 -0.00117889)
(-0.0490726 3.78257e-21 -0.00114649)
(-0.0495759 -1.13793e-20 -0.00111311)
(-0.0500578 3.61992e-20 -0.00107874)
(-0.0505177 2.29452e-19 -0.00104365)
(-0.0509553 1.46512e-20 -0.00100776)
(-0.0513704 -2.92741e-20 -0.000971062)
(-0.0517641 -4.72926e-19 -0.000933282)
(-0.0521377 -2.299e-20 -0.000894266)
(-0.0524924 2.02428e-21 -0.000853591)
(-0.0528295 -2.11632e-20 -0.000811868)
(-0.0531508 -4.89177e-19 -0.000770265)
(-0.0534609 -2.87824e-20 -0.000730109)
(-0.0537642 -2.27546e-20 -0.000692439)
(-0.0540641 -4.86237e-19 -0.000657805)
(-0.0543634 -2.8988e-20 -0.00062684)
(-0.0546656 2.02495e-21 -0.000600163)
(-0.0549742 -2.77099e-20 -0.000578221)
(-0.0552928 -5.48085e-19 -0.000561267)
(-0.0556253 -2.77895e-20 -0.000549565)
(-0.0559744 2.11484e-21 -0.000543115)
(-0.056344 -2.49883e-20 -0.000541853)
(-0.0567389 -5.7282e-19 -0.000546057)
(-0.0571623 -1.52861e-20 -0.000555624)
(-0.057616 -3.09135e-20 -0.000570027)
(-0.0581007 -6.22022e-19 -0.000588842)
(-0.0586166 -3.53025e-20 -0.00061054)
(-0.0591635 6.54622e-21 -0.000633025)
(-0.059741 -3.42237e-20 -0.000653777)
(-0.0603475 -6.31187e-19 -0.000669656)
(-0.0609801 -2.27537e-20 -0.000676649)
(-0.0616343 -4.01039e-20 -0.000669558)
(-0.0623022 -6.55547e-19 -0.000637564)
(-0.0629752 -6.37497e-20 -0.000584956)
(-0.0636753 -6.8724e-19 -0.000441735)
(-0.0643848 -6.97438e-20 -0.000296985)
(-0.0654913 -7.53797e-19 0.000114644)
(-0.0668611 -5.5845e-20 0.000924846)
(-0.0821132 6.70359e-20 0.00179756)
(-0.386742 -6.24914e-21 -0.0177881)
(-0.135966 -1.31815e-19 -0.198134)
(-0.132614 -2.17871e-19 -0.0770433)
(-0.0816544 -4.63118e-20 -0.150065)
(-0.0781049 -4.38601e-20 -0.09652)
(-0.0580929 -9.92433e-20 -0.128504)
(-0.0480601 -8.30223e-21 -0.115596)
(-0.0326753 2.57541e-20 -0.128889)
(-0.0196049 -4.08763e-19 -0.124729)
(-0.00768435 1.3195e-19 -0.120669)
(-0.0199187 -3.71443e-24 -2.54822e-05)
(-0.0200506 -4.68689e-23 -7.65816e-05)
(-0.0200898 -1.98604e-22 -0.0001277)
(-0.0201343 6.40629e-21 -0.000177757)
(-0.0201923 -8.46102e-20 -0.000228009)
(-0.0202684 -1.01141e-19 -0.000278709)
(-0.0203656 -9.49217e-20 -0.000329835)
(-0.0204849 -8.47452e-20 -0.000381231)
(-0.0206257 1.64846e-19 -0.000432784)
(-0.0207867 -8.64914e-20 -0.000484434)
(-0.0209671 1.71246e-19 -0.000536165)
(-0.0211663 -6.10069e-20 -0.00058798)
(-0.0213839 1.82661e-19 -0.000639882)
(-0.0216198 -9.14927e-20 -0.000691867)
(-0.0218739 2.22038e-19 -0.000743914)
(-0.0221463 -8.06436e-20 -0.000795985)
(-0.0224369 1.91733e-19 -0.000848008)
(-0.0227456 2.33385e-19 -0.000899869)
(-0.0230724 -9.69418e-20 -0.000951591)
(-0.0234172 2.3578e-19 -0.00100301)
(-0.0237798 2.21366e-19 -0.00105332)
(-0.0241608 2.28145e-19 -0.00110276)
(-0.024561 9.823e-21 -0.00115136)
(-0.0249797 -1.85765e-20 -0.00119965)
(-0.0254164 1.19779e-19 -0.00124773)
(-0.0258711 6.10231e-21 -0.00129553)
(-0.0263434 1.63504e-19 -0.00134306)
(-0.0268332 -1.09328e-19 -0.00139026)
(-0.0273401 2.5668e-19 -0.00143705)
(-0.0278639 2.81899e-19 -0.00148336)
(-0.028404 2.64784e-19 -0.00152902)
(-0.02896 3.73529e-21 -0.00157382)
(-0.0295317 -3.25331e-20 -0.00161757)
(-0.0301186 -1.58726e-19 -0.00166017)
(-0.0307202 -1.41906e-19 -0.0017015)
(-0.0313359 -1.76403e-19 -0.00174143)
(-0.031965 -1.43699e-19 -0.0017798)
(-0.0326066 -1.67245e-19 -0.00181639)
(-0.0332601 -1.83923e-19 -0.00185102)
(-0.0339244 -1.53866e-19 -0.00188346)
(-0.0345986 -1.673e-19 -0.00191348)
(-0.0352817 -1.57617e-19 -0.00194084)
(-0.0359724 -1.82473e-19 -0.00196532)
(-0.0366697 -1.40468e-19 -0.00198665)
(-0.0373722 -1.88965e-19 -0.00200461)
(-0.0380784 1.66493e-19 -0.00201895)
(-0.0387871 -1.50732e-19 -0.00202943)
(-0.0394966 -2.07663e-19 -0.00203583)
(-0.0402054 -1.97953e-19 -0.00203796)
(-0.0409119 -2.22735e-19 -0.00203561)
(-0.0416144 -1.93275e-19 -0.00202864)
(-0.0423111 -1.82067e-19 -0.0020169)
(-0.0430003 -1.9058e-19 -0.00200031)
(-0.0436804 -2.24005e-19 -0.00197881)
(-0.0443495 -8.11942e-21 -0.00195241)
(-0.0450059 -2.07044e-19 -0.00192117)
(-0.0456481 -2.22499e-19 -0.00188521)
(-0.0462743 -1.91761e-19 -0.00184473)
(-0.0468831 -2.45997e-19 -0.0018)
(-0.0474731 -1.88771e-19 -0.00175137)
(-0.0480427 -2.42138e-19 -0.00169921)
(-0.0485906 -1.97715e-19 -0.00164368)
(-0.0491165 -2.67389e-19 -0.00158507)
(-0.0496206 -2.90832e-19 -0.00152418)
(-0.0501028 -2.34433e-19 -0.00146206)
(-0.0505626 -2.1044e-19 -0.00139979)
(-0.051 -1.72254e-20 -0.00133817)
(-0.0514153 -2.49145e-19 -0.00127822)
(-0.0518093 4.75129e-19 -0.0012209)
(-0.0521822 -2.18517e-19 -0.00116619)
(-0.0525353 1.99471e-19 -0.00111438)
(-0.0528702 -2.23067e-19 -0.00106522)
(-0.053189 2.30926e-19 -0.00101957)
(-0.0534958 -1.90253e-19 -0.000978207)
(-0.0537949 2.43706e-19 -0.000942476)
(-0.0540898 2.74299e-19 -0.000913111)
(-0.0543834 -2.16992e-19 -0.000890897)
(-0.0546792 2.19617e-19 -0.000876711)
(-0.0549809 -2.20338e-19 -0.000871195)
(-0.0552926 5.02028e-19 -0.000874773)
(-0.0556175 -2.15689e-19 -0.000887763)
(-0.0559592 2.40226e-19 -0.000910215)
(-0.056322 -2.40753e-19 -0.000942529)
(-0.0567103 2.7875e-19 -0.00098458)
(-0.0571275 2.51947e-19 -0.00103535)
(-0.0575758 -2.53536e-19 -0.00109316)
(-0.0580569 2.41967e-19 -0.00115564)
(-0.0585714 -2.39461e-19 -0.00122002)
(-0.0591196 2.49136e-19 -0.00128331)
(-0.0597017 -2.35884e-19 -0.00134227)
(-0.0603166 5.3552e-19 -0.00139332)
(-0.0609623 1.71764e-20 -0.00143232)
(-0.0616359 -2.49293e-19 -0.00145464)
(-0.0623319 5.44934e-19 -0.00144901)
(-0.0630479 -2.29849e-19 -0.00143735)
(-0.0638047 5.59876e-19 -0.00131288)
(-0.0646223 -2.49474e-19 -0.00131522)
(-0.0659419 3.20336e-19 -0.000927961)
(-0.0673667 -8.17748e-20 -0.00107073)
(-0.0762414 8.04012e-20 -0.000579587)
(-0.315462 3.02037e-19 -0.0114986)
(-0.136397 2.30446e-19 -0.125968)
(-0.136502 7.57344e-20 -0.0504496)
(-0.0775195 -2.62962e-20 -0.121531)
(-0.0766235 2.22835e-19 -0.0824795)
(-0.0551485 1.09653e-20 -0.11444)
(-0.0457634 -3.47484e-20 -0.101528)
(-0.030977 -2.12141e-19 -0.114046)
(-0.0187043 1.37194e-19 -0.110754)
(-0.00708365 2.1594e-19 -0.111118)
(-0.0198593 -1.95029e-23 -3.37572e-05)
(-0.0199916 -3.82267e-22 -0.000101708)
(-0.0200314 -7.22647e-21 -0.000169803)
(-0.0200761 -9.16344e-20 -0.000236438)
(-0.0201338 7.98201e-20 -0.000303241)
(-0.0202096 9.88735e-20 -0.000370497)
(-0.0203065 1.071e-19 -0.000438189)
(-0.0204256 -3.88939e-22 -0.000506163)
(-0.0205662 -8.47279e-20 -0.000574322)
(-0.0207272 7.17324e-20 -0.000642618)
(-0.0209075 -1.05534e-19 -0.000711033)
(-0.0211065 -1.08647e-20 -0.000779565)
(-0.021324 -7.93e-20 -0.000848207)
(-0.0215598 7.43316e-20 -0.000916948)
(-0.021814 -1.04046e-19 -0.000985756)
(-0.0220864 -1.29615e-20 -0.00105458)
(-0.0223771 -1.02526e-19 -0.00112333)
(-0.0226861 -1.14489e-19 -0.00119193)
(-0.0230131 -9.84633e-20 -0.00126056)
(-0.0233579 -1.00862e-19 -0.00132847)
(-0.0237213 -1.1421e-19 -0.00139597)
(-0.0241036 -1.1348e-19 -0.00146379)
(-0.0245043 1.47272e-21 -0.00153148)
(-0.024923 1.10078e-19 -0.00159893)
(-0.0253597 -1.05203e-19 -0.00166604)
(-0.0258145 2.19345e-19 -0.00173277)
(-0.026287 -2.59794e-19 -0.00179907)
(-0.0267771 -1.26634e-19 -0.00186487)
(-0.0272846 -1.03282e-19 -0.00193005)
(-0.0278089 -1.24283e-19 -0.00199445)
(-0.0283499 -1.3352e-19 -0.00205789)
(-0.0289071 1.01786e-20 -0.00212012)
(-0.0294801 2.90805e-19 -0.00218091)
(-0.0300685 1.19742e-19 -0.00224003)
(-0.0306718 5.36798e-21 -0.00229727)
(-0.0312893 1.43872e-19 -0.0023524)
(-0.0319205 1.6265e-19 -0.00240518)
(-0.0325645 1.71331e-19 -0.00245534)
(-0.0332205 1.48583e-19 -0.00250259)
(-0.0338877 1.73771e-19 -0.00254665)
(-0.034565 1.65728e-19 -0.00258719)
(-0.0352514 6.14987e-21 -0.00262392)
(-0.0359459 1.41385e-19 -0.0026565)
(-0.0366471 1.53515e-19 -0.00268461)
(-0.0373538 1.85029e-19 -0.00270793)
(-0.0380645 2.0332e-19 -0.00272613)
(-0.038778 1.76336e-19 -0.00273893)
(-0.0394925 1.9141e-19 -0.00274601)
(-0.0402066 7.61305e-21 -0.00274711)
(-0.0409185 1.72344e-19 -0.00274199)
(-0.0416265 1.94382e-19 -0.00273043)
(-0.042329 1.53363e-21 -0.00271228)
(-0.043024 2.32909e-20 -0.00268742)
(-0.0437099 3.95442e-19 -0.00265579)
(-0.0443848 1.92189e-21 -0.0026174)
(-0.0450469 1.17448e-20 -0.00257234)
(-0.0456946 4.10191e-19 -0.00252077)
(-0.046326 2.41339e-19 -0.00246295)
(-0.0469397 2.22637e-19 -0.00239923)
(-0.0475341 9.06309e-21 -0.00233003)
(-0.0481078 2.2925e-19 -0.00225586)
(-0.0486596 2.31812e-19 -0.00217718)
(-0.0491888 2.3181e-19 -0.00209459)
(-0.049695 2.29929e-19 -0.00200901)
(-0.0501781 2.58579e-19 -0.00192171)
(-0.0506376 1.1605e-20 -0.001834)
(-0.0510735 1.9579e-20 -0.00174706)
(-0.0514859 2.51418e-19 -0.00166201)
(-0.0518758 4.98045e-20 -0.00158002)
(-0.0522448 2.31784e-19 -0.00150208)
(-0.0525938 -2.12431e-19 -0.00143016)
(-0.0529234 2.72004e-19 -0.00136525)
(-0.0532359 2.6872e-19 -0.00130832)
(-0.0535356 2.52032e-19 -0.00125981)
(-0.053827 -2.13885e-19 -0.00122055)
(-0.0541132 2.58064e-19 -0.00119158)
(-0.0543973 2.65073e-19 -0.00117368)
(-0.0546827 -2.5121e-19 -0.00116787)
(-0.0549735 2.40317e-19 -0.00117496)
(-0.0552737 5.94145e-20 -0.00119556)
(-0.0555873 2.36838e-19 -0.00122988)
(-0.0559174 -2.41367e-19 -0.00127822)
(-0.0562685 2.66362e-19 -0.00134008)
(-0.0566461 2.79713e-19 -0.00141459)
(-0.0570543 -2.42145e-19 -0.00150016)
(-0.0574964 2.89962e-19 -0.00159413)
(-0.0579742 3.13035e-19 -0.00169325)
(-0.0584888 2.61372e-19 -0.00179399)
(-0.0590406 -2.20626e-19 -0.0018927)
(-0.0596298 2.59318e-19 -0.00198563)
(-0.0602557 3.51259e-20 -0.0020689)
(-0.0609168 6.95259e-21 -0.00213827)
(-0.0616104 2.7607e-19 -0.00218954)
(-0.0623317 4.98944e-20 -0.00221159)
(-0.0630783 2.85785e-19 -0.00223841)
(-0.0638592 4.92669e-20 -0.00213322)
(-0.0647104 3.02865e-19 -0.00225203)
(-0.0659895 2.94884e-19 -0.00185838)
(-0.0673144 3.59381e-19 -0.00247753)
(-0.0722582 7.47631e-20 -0.00157469)
(-0.259156 2.45983e-19 -0.00738625)
(-0.12499 1.51206e-19 -0.089093)
(-0.120184 -1.10371e-19 -0.0357485)
(-0.0695227 1.09804e-19 -0.0998039)
(-0.0716813 -3.99683e-21 -0.0688113)
(-0.0502721 -1.20365e-19 -0.0999164)
(-0.0418593 -1.59007e-19 -0.0886151)
(-0.0285841 3.13198e-19 -0.101232)
(-0.0184189 1.34192e-19 -0.0985481)
(-0.00852662 -2.07474e-19 -0.0999148)
(-0.0197829 -1.02864e-23 -4.23057e-05)
(-0.0199152 -1.75743e-22 -0.000127709)
(-0.0199555 -3.07369e-21 -0.000213661)
(-0.0200002 -2.05451e-21 -0.000297883)
(-0.0200579 7.1948e-21 -0.000382247)
(-0.0201334 5.73517e-21 -0.000467043)
(-0.0202301 2.42495e-21 -0.000552255)
(-0.0203489 -1.03682e-20 -0.000637734)
(-0.0204893 4.12792e-20 -0.000723413)
(-0.0206501 4.58896e-21 -0.00080926)
(-0.0208303 -3.25821e-21 -0.000895267)
(-0.0210292 -3.29764e-20 -0.00098143)
(-0.0212466 3.16762e-21 -0.00106774)
(-0.0214823 1.75579e-21 -0.00115418)
(-0.0217364 -5.75947e-21 -0.00124072)
(-0.0220088 -1.15969e-20 -0.0013273)
(-0.0222997 -8.54771e-21 -0.00141386)
(-0.0226088 -1.14805e-20 -0.00150052)
(-0.0229357 2.72895e-21 -0.00158709)
(-0.0232808 -1.76748e-20 -0.00167326)
(-0.0236445 4.30261e-21 -0.00175994)
(-0.0240267 7.44719e-21 -0.00184652)
(-0.0244274 1.88432e-20 -0.0019329)
(-0.0248463 -2.37798e-20 -0.00201902)
(-0.0252834 -5.39703e-21 -0.00210475)
(-0.0257386 9.36657e-21 -0.00218997)
(-0.0262117 -1.16177e-20 -0.00227457)
(-0.0267025 2.44363e-20 -0.0023584)
(-0.0272108 -1.26364e-20 -0.0024413)
(-0.0277362 1.49031e-21 -0.00252306)
(-0.0282785 8.33388e-21 -0.00260347)
(-0.0288373 2.90344e-20 -0.00268226)
(-0.0294121 3.50781e-20 -0.00275915)
(-0.0300025 -9.71041e-21 -0.00283387)
(-0.0306081 8.72477e-22 -0.00290614)
(-0.0312283 6.68316e-21 -0.00297565)
(-0.0318623 1.05705e-20 -0.00304208)
(-0.0325095 1.27956e-20 -0.00310509)
(-0.033169 -8.65741e-21 -0.00316432)
(-0.03384 1.4881e-20 -0.0032194)
(-0.0345216 6.81427e-21 -0.00326995)
(-0.0352126 -1.22198e-20 -0.00331555)
(-0.035912 7.74646e-21 -0.00335581)
(-0.0366185 -1.81473e-20 -0.00339032)
(-0.0373308 1.13384e-20 -0.00341867)
(-0.0380476 -2.68662e-20 -0.00344046)
(-0.0387674 4.04939e-20 -0.00345531)
(-0.0394886 9.90209e-21 -0.00346284)
(-0.0402096 4.51043e-21 -0.00346273)
(-0.0409288 8.08936e-21 -0.00345466)
(-0.0416442 -1.07237e-20 -0.00343837)
(-0.0423542 -2.76369e-21 -0.00341367)
(-0.043057 2.031e-21 -0.00338041)
(-0.0437505 1.6721e-20 -0.00333852)
(-0.044433 -3.06222e-20 -0.00328802)
(-0.0451027 3.55011e-20 -0.00322902)
(-0.0457575 2.03692e-20 -0.00316174)
(-0.0463959 1.82938e-21 -0.0030865)
(-0.047016 8.90165e-21 -0.00300375)
(-0.0476164 -3.13753e-20 -0.00291405)
(-0.0481954 8.0826e-21 -0.00281806)
(-0.0487519 -1.27481e-20 -0.00271656)
(-0.0492848 6.81439e-21 -0.00261043)
(-0.0497936 -2.54801e-21 -0.00250083)
(-0.0502779 3.83599e-20 -0.00238917)
(-0.0507372 1.76718e-20 -0.00227694)
(-0.0511715 1.35866e-20 -0.00216564)
(-0.0515812 3.3321e-21 -0.00205679)
(-0.051967 -6.81311e-21 -0.0019519)
(-0.0523303 9.50923e-21 -0.00185238)
(-0.0526718 -7.11291e-21 -0.00176015)
(-0.0529922 2.15928e-20 -0.00167717)
(-0.0532945 2.05767e-20 -0.00160536)
(-0.0535834 3.09887e-21 -0.00154607)
(-0.0538631 -1.50221e-20 -0.00149981)
(-0.0541366 3.14693e-20 -0.00146787)
(-0.054407 5.96855e-21 -0.00145125)
(-0.0546778 -6.26218e-21 -0.001451)
(-0.0549532 1.29555e-20 -0.00146812)
(-0.0552375 7.2476e-21 -0.00150328)
(-0.0555352 9.25894e-21 -0.00155681)
(-0.0558498 -7.11157e-21 -0.00162834)
(-0.0561859 1.98806e-20 -0.00171748)
(-0.05655 -2.70059e-20 -0.00182234)
(-0.0569476 -8.62406e-23 -0.0019409)
(-0.0573823 2.29e-20 -0.00206971)
(-0.0578565 3.33874e-20 -0.002205)
(-0.0583713 2.06873e-21 -0.00234281)
(-0.0589272 -7.00126e-21 -0.00247903)
(-0.0595244 1.33548e-20 -0.00260939)
(-0.0601627 -1.52726e-22 -0.00272937)
(-0.0608406 1.96594e-20 -0.00283416)
(-0.0615554 5.81698e-22 -0.00291896)
(-0.0623022 -5.07454e-21 -0.0029725)
(-0.0630777 1.13819e-20 -0.00303287)
(-0.0638765 6.67836e-21 -0.00294215)
(-0.0647441 2.17952e-20 -0.00312652)
(-0.0659578 5.1161e-20 -0.00268941)
(-0.0672722 1.45186e-20 -0.00353663)
(-0.0709825 1.54817e-19 -0.00223561)
(-0.220611 1.9846e-19 -0.00533576)
(-0.121758 2.83261e-19 -0.0631575)
(-0.105022 -4.51981e-20 -0.0251468)
(-0.0592537 -4.10669e-20 -0.0813375)
(-0.0643084 9.94525e-20 -0.0575761)
(-0.0443659 -6.8675e-20 -0.08682)
(-0.0376767 3.35235e-20 -0.0773628)
(-0.0255449 8.87316e-20 -0.0897302)
(-0.0167438 -3.04025e-19 -0.0875284)
(-0.00777529 8.68271e-20 -0.0899522)
(-0.0196891 -1.08146e-23 -5.10158e-05)
(-0.0198211 -1.95451e-22 -0.000154134)
(-0.0198616 -3.32737e-21 -0.0002582)
(-0.0199065 -2.30179e-21 -0.000360321)
(-0.019964 8.08083e-21 -0.0004626)
(-0.0200394 9.29143e-21 -0.000565318)
(-0.0201359 -1.34901e-20 -0.000668442)
(-0.0202545 7.75753e-21 -0.000771818)
(-0.0203947 1.0071e-19 -0.000875398)
(-0.0205553 3.33681e-20 -0.000979174)
(-0.0207353 1.02762e-19 -0.00108315)
(-0.020934 7.39728e-21 -0.00118732)
(-0.0211512 9.56914e-20 -0.00129169)
(-0.0213868 2.17209e-20 -0.00139623)
(-0.0216408 9.78186e-20 -0.00150091)
(-0.0219132 1.03924e-20 -0.0016057)
(-0.022204 1.30174e-19 -0.00171058)
(-0.0225131 8.05631e-20 -0.00181579)
(-0.02284 -1.06716e-19 -0.0019206)
(-0.023185 1.32883e-19 -0.00202569)
(-0.0235487 1.24127e-19 -0.00213094)
(-0.023931 1.06275e-19 -0.00223596)
(-0.0243319 1.20245e-20 -0.00234072)
(-0.0247512 1.06489e-19 -0.00244514)
(-0.0251888 1.74809e-20 -0.00254908)
(-0.0256446 8.82483e-20 -0.00265239)
(-0.0261185 1.07339e-20 -0.0027549)
(-0.0266103 -9.28255e-20 -0.00285643)
(-0.0271198 1.46937e-19 -0.00295677)
(-0.0276466 1.31828e-19 -0.00305567)
(-0.0281906 1.19014e-19 -0.00315287)
(-0.0287513 1.38752e-20 -0.00324808)
(-0.0293284 1.23976e-19 -0.00334096)
(-0.0299215 -3.67554e-20 -0.00343119)
(-0.0305299 1.727e-20 -0.00351842)
(-0.0311533 1.06228e-21 -0.00360227)
(-0.031791 1.2576e-20 -0.00368235)
(-0.0324422 -1.3553e-19 -0.00375825)
(-0.0331061 -2.74781e-20 -0.00382952)
(-0.033782 2.05871e-20 -0.00389572)
(-0.0344688 -9.36964e-21 -0.00395637)
(-0.0351655 2.49457e-20 -0.004011)
(-0.0358711 3.61053e-20 -0.00405909)
(-0.0365842 2.79868e-20 -0.00410017)
(-0.0373036 6.78525e-20 -0.00413373)
(-0.0380279 1.28805e-19 -0.00415928)
(-0.0387556 1.21868e-20 -0.00417636)
(-0.0394851 5.70925e-22 -0.00418451)
(-0.0402148 3.01813e-20 -0.00418332)
(-0.0409429 3.06494e-20 -0.00417242)
(-0.0416676 1.2907e-20 -0.00415148)
(-0.042387 3.52316e-20 -0.00412026)
(-0.0430993 5.60175e-20 -0.00407857)
(-0.0438024 4.87652e-21 -0.00402634)
(-0.0444944 -2.40809e-19 -0.00396357)
(-0.0451734 2.8752e-20 -0.0038904)
(-0.0458372 1.17239e-20 -0.00380708)
(-0.0464842 3.39478e-20 -0.00371401)
(-0.0471124 -8.92605e-22 -0.00361172)
(-0.04772 3.49679e-20 -0.0035009)
(-0.0483056 -2.29887e-20 -0.0033824)
(-0.0488676 2.2735e-20 -0.00325721)
(-0.0494049 -2.02105e-19 -0.00312651)
(-0.0499167 -3.21933e-20 -0.00299168)
(-0.0504024 2.32143e-20 -0.00285436)
(-0.0508615 5.3339e-20 -0.00271632)
(-0.0512939 1.57107e-20 -0.00257942)
(-0.0516999 1.96797e-20 -0.00244557)
(-0.0520804 2.43465e-19 -0.00231671)
(-0.0524366 -3.12784e-20 -0.00219472)
(-0.0527688 -2.08757e-20 -0.00208207)
(-0.0530777 8.34929e-21 -0.00198082)
(-0.0533668 2.49346e-19 -0.00189322)
(-0.0536412 -2.95541e-20 -0.00182136)
(-0.0539052 1.19562e-20 -0.00176644)
(-0.0541619 2.50178e-19 -0.00172982)
(-0.0544143 7.56633e-21 -0.00171292)
(-0.054666 2.40816e-20 -0.00171692)
(-0.0549214 5.00104e-20 -0.00174299)
(-0.0551851 2.47735e-19 -0.00179195)
(-0.0554622 -7.53647e-21 -0.00186415)
(-0.0557572 8.91429e-21 -0.00195887)
(-0.0560748 2.68107e-20 -0.00207523)
(-0.0564224 2.49014e-19 -0.00221074)
(-0.0568068 1.23496e-20 -0.002363)
(-0.0572322 -5.98604e-22 -0.00252822)
(-0.057701 2.62656e-19 -0.00270237)
(-0.0582146 -9.71981e-21 -0.0028812)
(-0.0587737 -1.70353e-22 -0.00306009)
(-0.059379 8.76719e-21 -0.00323393)
(-0.0600304 2.70702e-19 -0.00339722)
(-0.0607268 7.01313e-22 -0.003544)
(-0.0614655 -6.15616e-21 -0.00366813)
(-0.0622416 2.76609e-19 -0.00375779)
(-0.0630508 -2.56504e-20 -0.00384961)
(-0.0638769 2.72926e-19 -0.00376998)
(-0.0647685 -1.26979e-20 -0.0039869)
(-0.0659316 2.44498e-19 -0.00346676)
(-0.0672774 -2.5977e-20 -0.00439908)
(-0.0705507 7.72548e-20 -0.00269517)
(-0.193232 1.73007e-19 -0.00470209)
(-0.118957 3.35914e-19 -0.046092)
(-0.0887935 1.0117e-19 -0.0195157)
(-0.0491591 1.39093e-19 -0.0667669)
(-0.0562125 1.17144e-19 -0.0487851)
(-0.0382874 -1.78066e-19 -0.0753264)
(-0.0333323 -8.96596e-20 -0.0676898)
(-0.0224501 2.09071e-19 -0.0795083)
(-0.0151055 1.38438e-19 -0.0777361)
(-0.0072515 -1.93566e-19 -0.08054)
(-0.0195777 -8.38022e-24 -5.98107e-05)
(-0.0197091 -1.6663e-22 -0.000180765)
(-0.0197497 -2.40489e-21 -0.000303005)
(-0.0197947 1.68479e-20 -0.000423079)
(-0.0198522 5.9321e-21 -0.000543353)
(-0.0199274 1.41316e-21 -0.000664104)
(-0.0200237 -2.21852e-21 -0.000785274)
(-0.0201421 -4.34363e-21 -0.000906692)
(-0.020282 -1.07399e-19 -0.00102832)
(-0.0204424 -1.02425e-19 -0.00115018)
(-0.0206221 -9.27689e-20 -0.00127227)
(-0.0208207 1.44731e-20 -0.0013946)
(-0.0210377 -8.88292e-20 -0.00151718)
(-0.0212731 -1.27021e-19 -0.00163999)
(-0.0215269 -1.18245e-19 -0.001763)
(-0.0217992 9.05667e-22 -0.00188618)
(-0.0220899 -9.49667e-20 -0.00200967)
(-0.0223987 -9.88518e-20 -0.00213334)
(-0.0227255 3.86823e-21 -0.00225666)
(-0.0230706 -1.01684e-19 -0.00238041)
(-0.0234345 -1.16037e-19 -0.00250404)
(-0.023817 -1.17731e-19 -0.00262742)
(-0.0242182 1.04567e-20 -0.00275049)
(-0.0246379 -1.19282e-19 -0.00287317)
(-0.0250761 2.60947e-21 -0.00299528)
(-0.0255327 -1.43753e-19 -0.00311666)
(-0.0260076 2.13366e-19 -0.0032371)
(-0.0265006 3.98459e-20 -0.00335638)
(-0.0270115 -9.72018e-20 -0.00347424)
(-0.0275401 -1.29215e-19 -0.00359041)
(-0.0280861 -1.23901e-19 -0.00370458)
(-0.0286491 1.77225e-20 -0.0038164)
(-0.0292289 -1.38733e-19 -0.00392551)
(-0.029825 -3.24013e-20 -0.00403151)
(-0.030437 2.89578e-19 -0.00413399)
(-0.0310643 2.39704e-20 -0.0042325)
(-0.0317062 2.78208e-19 -0.00432659)
(-0.0323622 1.84058e-20 -0.00441575)
(-0.0330315 1.41519e-20 -0.00449947)
(-0.0337131 3.14802e-19 -0.00457722)
(-0.0344062 2.76713e-20 -0.00464843)
(-0.0351098 3.43443e-19 -0.00471252)
(-0.0358228 3.01408e-20 -0.00476892)
(-0.0365438 3.32078e-19 -0.00481703)
(-0.0372717 2.76215e-20 -0.00485626)
(-0.038005 -1.85169e-19 -0.00488602)
(-0.0387422 3.35407e-19 -0.00490575)
(-0.0394817 3.05243e-20 -0.00491492)
(-0.0402218 3.94227e-19 -0.00491301)
(-0.0409606 3.33338e-20 -0.00489958)
(-0.0416965 4.16076e-19 -0.00487423)
(-0.0424273 4.38183e-19 -0.00483666)
(-0.043151 4.74896e-19 -0.00478663)
(-0.0438657 -1.92891e-20 -0.00472403)
(-0.0445692 2.74218e-20 -0.00464886)
(-0.0452594 4.64883e-19 -0.00456125)
(-0.0459342 2.20436e-20 -0.0044615)
(-0.0465915 4.4864e-19 -0.00435005)
(-0.0472294 3.73261e-20 -0.00422752)
(-0.047846 4.73456e-19 -0.00409473)
(-0.0484394 3.64324e-20 -0.00395269)
(-0.049008 4.49373e-19 -0.00380259)
(-0.0495506 1.2106e-20 -0.00364586)
(-0.0500661 1.92225e-20 -0.00348415)
(-0.0505535 4.62634e-19 -0.00331936)
(-0.0510124 5.37135e-19 -0.00315357)
(-0.0514425 1.68565e-20 -0.00298901)
(-0.0518441 -2.35484e-20 -0.00282801)
(-0.052218 -1.98502e-19 -0.00267299)
(-0.0525653 -3.58297e-20 -0.0025263)
(-0.052886 2.89055e-20 -0.00239097)
(-0.0531809 3.35782e-22 -0.00226953)
(-0.0534541 -2.2266e-19 -0.00216436)
(-0.0537103 -4.37571e-20 -0.00207803)
(-0.0539546 2.19923e-20 -0.00201282)
(-0.0541902 -2.20458e-19 -0.00197034)
(-0.0544201 -4.33393e-20 -0.00195229)
(-0.0546478 3.18829e-20 -0.00196005)
(-0.0548783 -1.18608e-20 -0.00199493)
(-0.0551165 -2.22668e-19 -0.00205784)
(-0.0553681 -3.27402e-20 -0.00214903)
(-0.055639 3.29443e-20 -0.00226769)
(-0.0559344 -1.92922e-21 -0.00241194)
(-0.056262 -2.16384e-19 -0.00257933)
(-0.05663 2.29465e-20 -0.00276709)
(-0.0570429 -1.1262e-21 -0.00297159)
(-0.0575034 -2.40565e-19 -0.00318866)
(-0.0580134 -5.83324e-20 -0.00341368)
(-0.0585741 3.70305e-20 -0.00364129)
(-0.0591868 -3.55262e-20 -0.00386535)
(-0.059852 -2.53597e-19 -0.0040791)
(-0.060569 2.33612e-20 -0.00427526)
(-0.0613352 -5.72459e-20 -0.00444603)
(-0.0621462 -2.4865e-19 -0.00457845)
(-0.0629976 -4.92797e-20 -0.00470478)
(-0.0638676 -2.64386e-19 -0.00463759)
(-0.06481 -4.37891e-20 -0.00488077)
(-0.0659578 -3.07128e-19 -0.00426224)
(-0.0674014 -6.52716e-20 -0.00523638)
(-0.0706537 1.83186e-19 -0.00318068)
(-0.17325 -2.00018e-20 -0.00478051)
(-0.116787 1.73708e-19 -0.0353162)
(-0.0736215 9.46983e-20 -0.0169046)
(-0.0396355 2.11462e-20 -0.0555247)
(-0.0476762 -1.00669e-20 -0.0422554)
(-0.0320249 -1.96495e-19 -0.0656498)
(-0.0286661 -3.12333e-20 -0.0597274)
(-0.0190738 2.98558e-19 -0.0707136)
(-0.0131136 -1.82724e-19 -0.0693758)
(-0.0063217 -9.4831e-20 -0.0722814)
(-0.0194486 1.09856e-24 -6.86428e-05)
(-0.0195792 3.92687e-23 -0.000207479)
(-0.0196199 9.53498e-22 -0.00034789)
(-0.0196648 9.92922e-20 -0.000485893)
(-0.0197222 1.35279e-20 -0.000624145)
(-0.0197973 -1.46127e-20 -0.000762933)
(-0.0198934 3.95969e-21 -0.000902175)
(-0.0200116 2.2027e-21 -0.00104167)
(-0.0201513 9.48796e-20 -0.0011814)
(-0.0203114 -9.00737e-21 -0.00132139)
(-0.0204908 8.1631e-20 -0.00146165)