/*--------------------------------*- C++ -*----------------------------------*\
| =========                 |                                                 |
| \\      /  F ield         | OpenFOAM: The Open Source CFD Toolbox           |
|  \\    /   O peration     | Version:  v2106                                 |
|   \\  /    A nd           | Website:  www.openfoam.com                      |
|    \\/     M anipulation  |                                                 |
\*---------------------------------------------------------------------------*/
FoamFile
{
    version     2.0;
    format      ascii;
    arch        "LSB;label=32;scalar=64";
    class       volScalarField;
    location    "1.7";
    object      k;
}
// * * * * * * * * * * * * * * * * * * * * * * * * * * * * * * * * * * * * * //

dimensions      [0 2 -2 0 0 0 0];

internalField   nonuniform List<scalar> 
29678
(
0.000125664
0.000174809
0.000195148
0.000203315
0.000207262
0.000209481
0.00021087
0.000211813
0.000212497
0.000213018
0.000213441
0.000213812
0.00021416
0.000214504
0.000214858
0.000215229
0.000215626
0.000216054
0.000216522
0.000217037
0.000217562
0.000218069
0.000218562
0.000219041
0.00021951
0.000219972
0.000220391
0.000220788
0.000221274
0.000221765
0.000222251
0.000222711
0.000223041
0.000223264
0.000223409
0.000223495
0.000223542
0.000223535
0.000223463
0.000223354
0.000223207
0.000222998
0.000222751
0.000222564
0.000222486
0.000222475
0.000222504
0.00022259
0.000222759
0.000222991
0.000223263
0.000223588
0.00022397
0.000224387
0.000224835
0.000225322
0.000225873
0.000226477
0.000227111
0.000227707
0.000228203
0.0002286
0.000228922
0.000229171
0.000229284
0.000229492
0.000229376
0.000230081
0.000230159
0.000230087
0.000229641
0.000230257
0.000229878
0.000229653
0.000229637
0.000229353
0.00022872
0.000227797
0.000227446
0.000227704
0.000229448
0.000229181
0.000230335
0.00023051
0.000230828
0.000231484
0.000231595
0.000231648
0.000231883
0.000233708
0.000233734
0.000235289
0.000237211
0.000240538
0.000248026
0.00026454
0.000295855
0.00034996
0.000370245
0.00037248
0.000349089
0.000319519
0.000295642
0.000276748
0.00026222
0.000252128
0.000244841
0.000238179
0.000229557
0.000221273
0.000125632
0.000174838
0.000195206
0.00020341
0.000207387
0.000209631
0.000211046
0.000212023
0.00021273
0.000213274
0.000213725
0.000214127
0.00021451
0.000214895
0.000215294
0.000215718
0.000216175
0.000216672
0.00021719
0.000217697
0.000218194
0.000218682
0.000219162
0.000219636
0.000220104
0.00022057
0.000221038
0.000221514
0.000221989
0.000222457
0.000222915
0.000223355
0.000223687
0.000223915
0.000224067
0.000224157
0.0002242
0.000224182
0.000224102
0.000223977
0.000223799
0.000223574
0.000223358
0.000223207
0.000223133
0.00022314
0.000223196
0.000223314
0.000223514
0.00022378
0.000224094
0.000224465
0.000224891
0.000225355
0.000225853
0.000226393
0.000226978
0.000227543
0.000228078
0.000228573
0.000229005
0.000229372
0.000229681
0.000229939
0.000230147
0.00022997
0.000229499
0.000229063
0.000228313
0.000227575
0.000226856
0.000225861
0.000224953
0.000224254
0.000223715
0.000223332
0.000223144
0.000223297
0.000224126
0.000224709
0.000225164
0.000226673
0.000226761
0.000226986
0.000227576
0.000228363
0.000228777
0.00022805
0.000228511
0.000229242
0.000229939
0.000231795
0.00023469
0.000239321
0.000245625
0.000260359
0.00029069
0.000338524
0.000368565
0.000375453
0.000358681
0.00032859
0.000302501
0.000281729
0.000263805
0.000249504
0.000238198
0.000229805
0.000223555
0.000219152
0.000125627
0.000174884
0.000195282
0.000203522
0.000207523
0.000209789
0.000211225
0.000212215
0.00021293
0.000213479
0.000213934
0.000214341
0.000214728
0.000215117
0.000215521
0.00021595
0.00021641
0.000216909
0.000217428
0.000217936
0.000218435
0.000218926
0.000219409
0.000219885
0.000220356
0.000220824
0.00022129
0.000221751
0.000222207
0.000222657
0.0002231
0.000223536
0.000223961
0.000224312
0.000224569
0.000224747
0.000224857
0.000224898
0.00022487
0.00022478
0.000224626
0.000224407
0.000224169
0.000223959
0.000223815
0.000223744
0.00022373
0.000223773
0.00022388
0.000224047
0.000224266
0.000224535
0.000224854
0.000225215
0.000225613
0.000226046
0.000226517
0.000227022
0.000227549
0.00022804
0.000228474
0.000228847
0.000229161
0.000229419
0.00022946
0.000229133
0.00022872
0.000228316
0.000227746
0.000227055
0.000226261
0.000225365
0.000224459
0.000223634
0.000222963
0.000222551
0.000222498
0.000222843
0.000223535
0.000224337
0.000225097
0.000225985
0.000226459
0.00022682
0.00022729
0.000227833
0.000228304
0.00022847
0.000228921
0.000229617
0.000230481
0.000232207
0.000234448
0.000238617
0.000244309
0.000257342
0.000287717
0.000342292
0.000381242
0.000382145
0.000366524
0.000334677
0.000307627
0.00028673
0.000268129
0.00025245
0.000239625
0.000230082
0.000223489
0.000219121
0.000125627
0.000174944
0.000195381
0.000203659
0.000207683
0.000209963
0.000211411
0.000212402
0.000213116
0.000213664
0.000214116
0.000214519
0.000214904
0.00021529
0.000215692
0.000216118
0.000216575
0.000217069
0.000217592
0.000218105
0.00021861
0.000219106
0.000219594
0.000220075
0.000220549
0.000221018
0.000221482
0.000221943
0.0002224
0.000222852
0.000223296
0.000223733
0.000224159
0.00022455
0.000224839
0.000225042
0.000225168
0.000225223
0.000225214
0.000225147
0.000225031
0.000224874
0.000224693
0.000224517
0.000224378
0.000224296
0.00022427
0.000224297
0.000224382
0.000224524
0.000224719
0.000224966
0.000225263
0.000225605
0.000225988
0.000226408
0.000226861
0.000227341
0.000227823
0.000228261
0.000228653
0.000228992
0.000229237
0.000229335
0.000229261
0.000229032
0.000228711
0.000228314
0.000227773
0.000227134
0.000226441
0.000225702
0.000224963
0.00022429
0.000223759
0.000223468
0.000223475
0.000223775
0.000224336
0.000225004
0.000225732
0.000226585
0.000227077
0.000227432
0.000227934
0.000228496
0.000228965
0.000229349
0.000230088
0.000231078
0.000232374
0.000234328
0.000236679
0.000240279
0.000244778
0.000255475
0.000283279
0.000333342
0.00037116
0.000371797
0.000366151
0.000335117
0.000308943
0.000289132
0.000271366
0.000255726
0.000242439
0.000232139
0.000224681
0.000219571
0.000125628
0.000175016
0.000195499
0.000203821
0.000207869
0.000210161
0.000211618
0.000212608
0.000213319
0.000213861
0.000214309
0.000214708
0.00021509
0.000215475
0.000215876
0.0002163
0.000216755
0.000217245
0.000217768
0.000218287
0.000218797
0.000219299
0.000219792
0.000220278
0.000220756
0.000221229
0.000221695
0.000222155
0.000222609
0.000223055
0.000223494
0.000223925
0.000224341
0.000224682
0.000224948
0.000225148
0.000225285
0.000225365
0.000225391
0.000225369
0.000225308
0.000225218
0.000225112
0.000225008
0.000224925
0.000224878
0.000224873
0.000224912
0.000225
0.000225135
0.000225317
0.000225542
0.000225809
0.000226113
0.000226448
0.00022681
0.000227191
0.000227585
0.000227978
0.000228354
0.000228691
0.000228966
0.000229153
0.00022923
0.00022917
0.000228968
0.000228665
0.00022828
0.000227805
0.000227252
0.00022665
0.000226023
0.000225405
0.000224848
0.000224421
0.000224188
0.000224166
0.000224338
0.000224693
0.000225195
0.000225808
0.000226474
0.000227037
0.000227536
0.000228082
0.000228675
0.0002293
0.000229979
0.000230893
0.000231999
0.000233414
0.000235343
0.000237739
0.000240968
0.000244956
0.000254696
0.00028088
0.000326029
0.000356601
0.000357171
0.000362334
0.000332941
0.000307298
0.00028908
0.000272962
0.000258057
0.000244612
0.000233702
0.00022556
0.000219906
0.000125625
0.000175101
0.000195635
0.000204
0.000208075
0.000210383
0.000211847
0.000212836
0.000213541
0.000214079
0.000214521
0.000214917
0.000215296
0.00021568
0.000216079
0.000216502
0.000216955
0.000217442
0.000217964
0.000218488
0.000219004
0.000219511
0.00022001
0.000220501
0.000220985
0.000221462
0.000221933
0.000222398
0.000222857
0.000223309
0.000223755
0.000224193
0.000224624
0.000225044
0.000225398
0.000225672
0.000225873
0.000226006
0.00022608
0.000226101
0.000226079
0.000226026
0.000225955
0.000225881
0.000225821
0.000225786
0.000225787
0.000225827
0.000225909
0.000226033
0.000226198
0.000226403
0.000226644
0.000226917
0.000227217
0.000227539
0.000227876
0.00022822
0.000228559
0.00022888
0.000229164
0.000229393
0.000229544
0.000229593
0.00022953
0.000229356
0.000229084
0.000228726
0.000228289
0.000227791
0.000227256
0.00022671
0.000226185
0.000225726
0.000225388
0.000225213
0.000225209
0.000225366
0.000225684
0.000226152
0.000226741
0.000227371
0.000227941
0.00022847
0.000229037
0.000229666
0.000230359
0.000231157
0.000232177
0.000233396
0.000234927
0.000236866
0.000239175
0.000241923
0.000245641
0.00025445
0.000277514
0.000316876
0.000345183
0.000345975
0.000355995
0.000327769
0.000302612
0.000286027
0.000272231
0.00025908
0.000246284
0.000235261
0.000226576
0.000220329
0.000125618
0.000175196
0.000195788
0.000204195
0.0002083
0.000210625
0.000212097
0.000213084
0.000213785
0.000214316
0.000214754
0.000215146
0.000215523
0.000215906
0.000216304
0.000216727
0.000217179
0.000217663
0.000218183
0.000218712
0.000219233
0.000219746
0.000220251
0.000220749
0.00022124
0.000221724
0.000222202
0.000222674
0.000223139
0.000223598
0.00022405
0.000224494
0.000224931
0.000225348
0.000225695
0.000225975
0.000226193
0.000226355
0.000226466
0.000226533
0.000226567
0.000226575
0.000226569
0.00022656
0.000226559
0.000226575
0.000226617
0.000226688
0.000226793
0.000226933
0.000227107
0.000227314
0.000227551
0.000227813
0.000228097
0.000228396
0.000228703
0.00022901
0.000229306
0.000229579
0.000229813
0.000229993
0.000230099
0.00023012
0.00023005
0.000229885
0.000229634
0.000229304
0.000228907
0.000228458
0.00022798
0.000227497
0.000227038
0.000226639
0.00022634
0.000226165
0.000226123
0.000226212
0.000226436
0.000226793
0.000227266
0.000227805
0.000228349
0.000228895
0.000229485
0.000230149
0.000230907
0.000231798
0.000232898
0.000234211
0.000235818
0.000237793
0.000240066
0.000242618
0.000246065
0.000254064
0.000274152
0.000308387
0.000334253
0.000335134
0.000348019
0.000320645
0.000295793
0.00028048
0.000269223
0.000258587
0.000247141
0.000236486
0.000227498
0.000220744
0.000125606
0.000175302
0.000195955
0.000204404
0.00020854
0.000210886
0.000212365
0.000213352
0.000214048
0.000214574
0.000215007
0.000215396
0.000215772
0.000216154
0.000216553
0.000216976
0.000217427
0.00021791
0.000218427
0.000218961
0.000219488
0.000220008
0.000220521
0.000221028
0.000221527
0.000222021
0.000222508
0.000222989
0.000223464
0.000223932
0.000224394
0.000224849
0.000225296
0.000225735
0.000226131
0.000226461
0.000226731
0.000226945
0.00022711
0.000227231
0.000227319
0.00022738
0.000227425
0.000227464
0.000227505
0.000227557
0.000227627
0.00022772
0.00022784
0.000227987
0.000228162
0.000228364
0.000228589
0.000228834
0.000229094
0.000229364
0.000229636
0.000229902
0.000230154
0.00023038
0.000230569
0.000230707
0.000230782
0.000230788
0.000230717
0.000230567
0.00023034
0.000230041
0.000229683
0.000229279
0.000228849
0.000228414
0.000228001
0.00022764
0.000227361
0.000227188
0.00022713
0.000227194
0.000227387
0.000227706
0.000228137
0.000228645
0.00022918
0.000229738
0.00023035
0.000231047
0.000231854
0.000232802
0.000233945
0.000235318
0.000236946
0.000238856
0.000240884
0.000243259
0.000246442
0.000253498
0.000271096
0.00030159
0.000326387
0.000327279
0.000339649
0.000311906
0.000287622
0.000273345
0.000264463
0.000256729
0.000247159
0.000237352
0.00022836
0.000221177
0.000125586
0.000175419
0.000196134
0.000204626
0.000208794
0.000211162
0.000212651
0.000213638
0.000214331
0.000214853
0.000215282
0.000215668
0.000216043
0.000216425
0.000216825
0.000217249
0.000217702
0.000218185
0.0002187
0.000219239
0.000219774
0.000220303
0.000220826
0.000221343
0.000221853
0.000222358
0.000222856
0.000223349
0.000223835
0.000224316
0.000224789
0.000225256
0.000225716
0.000226168
0.000226599
0.000226971
0.000227286
0.00022755
0.000227767
0.000227943
0.000228087
0.000228205
0.000228307
0.000228399
0.000228489
0.000228585
0.000228692
0.000228816
0.000228958
0.000229121
0.000229306
0.000229509
0.00022973
0.000229965
0.00023021
0.000230458
0.000230704
0.00023094
0.000231158
0.000231348
0.000231502
0.000231607
0.00023166
0.000231648
0.000231568
0.000231419
0.000231202
0.000230922
0.000230587
0.00023021
0.000229809
0.000229404
0.000229019
0.00022868
0.00022841
0.000228229
0.00022815
0.000228183
0.000228333
0.000228598
0.000228966
0.000229414
0.000229907
0.000230446
0.000231055
0.000231763
0.000232594
0.00023357
0.000234733
0.000236136
0.000237737
0.000239536
0.000241378
0.00024364
0.000246525
0.000252783
0.000268292
0.000295884
0.000319919
0.000320842
0.000331387
0.000300028
0.000277558
0.000265542
0.00025939
0.000254072
0.000246561
0.000237859
0.000229098
0.000221611
0.000125558
0.000175546
0.000196326
0.000204861
0.000209063
0.000211455
0.000212954
0.000213943
0.000214633
0.000215151
0.000215577
0.000215962
0.000216336
0.000216719
0.000217121
0.000217548
0.000218003
0.000218488
0.000219005
0.000219551
0.000220096
0.000220636
0.00022117
0.000221699
0.000222222
0.000222739
0.000223251
0.000223757
0.000224257
0.000224751
0.000225239
0.00022572
0.000226194
0.000226661
0.00022712
0.000227539
0.000227906
0.000228224
0.000228497
0.000228732
0.000228934
0.00022911
0.000229267
0.000229413
0.000229552
0.000229692
0.000229837
0.000229992
0.000230159
0.00023034
0.000230535
0.000230742
0.000230961
0.000231187
0.000231417
0.000231646
0.000231867
0.000232074
0.000232261
0.000232418
0.000232538
0.000232616
0.000232643
0.000232612
0.000232521
0.00023237
0.00023216
0.000231894
0.000231579
0.000231226
0.000230849
0.000230467
0.0002301
0.00022977
0.000229498
0.000229303
0.0002292
0.0002292
0.000229309
0.000229525
0.000229839
0.000230237
0.000230695
0.000231214
0.000231816
0.000232522
0.000233356
0.000234335
0.000235481
0.000236846
0.000238283
0.000239936
0.000241573
0.000243685
0.000246304
0.000251982
0.00026618
0.00029163
0.000314415
0.000315414
0.000325258
0.000292107
0.000269093
0.000259307
0.000255102
0.000251398
0.000245597
0.000238065
0.000229695
0.000222032
0.00012552
0.000175684
0.000196528
0.000205109
0.000209346
0.000211763
0.000213274
0.000214266
0.000214954
0.000215469
0.000215892
0.000216275
0.000216651
0.000217037
0.000217442
0.000217874
0.000218334
0.000218825
0.000219347
0.0002199
0.000220457
0.00022101
0.000221557
0.0002221
0.000222637
0.000223169
0.000223695
0.000224216
0.000224731
0.000225241
0.000225745
0.000226243
0.000226733
0.000227217
0.000227693
0.000228158
0.00022858
0.000228955
0.000229288
0.000229584
0.000229846
0.000230082
0.000230297
0.000230497
0.000230688
0.000230873
0.000231059
0.000231247
0.000231441
0.000231643
0.000231851
0.000232066
0.000232285
0.000232505
0.000232724
0.000232936
0.000233137
0.00023332
0.000233479
0.000233608
0.000233704
0.000233756
0.000233759
0.00023371
0.000233607
0.00023345
0.000233241
0.000232981
0.000232677
0.000232337
0.000231974
0.000231605
0.000231245
0.000230916
0.000230635
0.00023042
0.000230289
0.000230254
0.000230321
0.00023049
0.000230753
0.000231102
0.000231522
0.000232015
0.000232597
0.000233288
0.000234104
0.00023506
0.000236147
0.00023738
0.000238648
0.000240159
0.000241599
0.000243528
0.000245931
0.000251232
0.000264689
0.000288901
0.00031059
0.000311826
0.000321211
0.000287993
0.000263658
0.000255533
0.000251906
0.000249127
0.000244512
0.000238057
0.000230152
0.000222424
0.000125472
0.000175833
0.000196742
0.00020537
0.000209645
0.000212089
0.000213612
0.000214607
0.000215294
0.000215806
0.000216227
0.00021661
0.000216988
0.000217378
0.000217789
0.000218228
0.000218697
0.000219196
0.000219728
0.00022029
0.000220861
0.000221428
0.00022199
0.000222547
0.0002231
0.000223648
0.000224191
0.000224729
0.000225261
0.000225789
0.000226311
0.000226827
0.000227337
0.000227839
0.000228334
0.000228821
0.000229297
0.000229735
0.000230131
0.00023049
0.000230816
0.000231114
0.000231389
0.000231646
0.000231889
0.000232123
0.000232351
0.000232576
0.0002328
0.000233025
0.00023325
0.000233474
0.000233697
0.000233916
0.000234127
0.000234326
0.000234509
0.000234671
0.000234807
0.000234912
0.000234986
0.000235013
0.000234993
0.000234924
0.000234805
0.000234638
0.000234424
0.000234164
0.000233865
0.000233533
0.000233178
0.000232814
0.000232456
0.00023212
0.000231825
0.000231588
0.000231425
0.00023135
0.000231372
0.00023149
0.000231701
0.000232
0.000232378
0.000232837
0.000233389
0.00023405
0.00023483
0.000235735
0.000236714
0.000237809
0.000238943
0.000240314
0.000241572
0.000243298
0.000245549
0.000250647
0.000263812
0.000287187
0.000307843
0.000309397
0.000318944
0.000286913
0.000261293
0.000253861
0.00024987
0.000247452
0.000243492
0.000237963
0.000230519
0.000222794
0.000125414
0.000175993
0.000196969
0.000205646
0.000209962
0.000212432
0.000213968
0.000214967
0.000215653
0.000216162
0.000216582
0.000216967
0.000217349
0.000217745
0.000218165
0.000218614
0.000219094
0.000219605
0.000220148
0.000220723
0.000221309
0.000221892
0.00022247
0.000223044
0.000223614
0.00022418
0.000224741
0.000225298
0.00022585
0.000226397
0.000226939
0.000227476
0.000228007
0.000228531
0.000229047
0.000229556
0.000230056
0.000230546
0.000231013
0.000231439
0.000231832
0.000232196
0.000232533
0.000232849
0.000233148
0.000233432
0.000233706
0.00023397
0.000234228
0.000234479
0.000234724
0.000234963
0.000235193
0.000235413
0.00023562
0.00023581
0.000235979
0.000236124
0.00023624
0.000236331
0.000236379
0.000236382
0.000236339
0.00023625
0.000236114
0.000235933
0.000235708
0.000235444
0.000235144
0.000234813
0.000234461
0.000234096
0.000233733
0.000233387
0.000233074
0.00023281
0.000232613
0.000232495
0.000232467
0.000232531
0.000232687
0.000232933
0.000233265
0.000233683
0.000234197
0.000234817
0.000235545
0.000236376
0.000237246
0.000238228
0.000239246
0.000240472
0.000241561
0.000243084
0.000245253
0.000250284
0.000263476
0.000286447
0.000306024
0.000307905
0.000320334
0.000288711
0.000261131
0.000253657
0.000248904
0.000246431
0.000242704
0.000237864
0.000230831
0.000223159
0.000125343
0.000176167
0.000197211
0.00020594
0.000210299
0.000212795
0.000214343
0.000215347
0.000216033
0.00021654
0.000216959
0.000217347
0.000217735
0.000218141
0.000218573
0.000219034
0.000219527
0.000220053
0.000220611
0.000221202
0.000221804
0.000222404
0.000223
0.000223593
0.000224182
0.000224767
0.000225348
0.000225925
0.000226499
0.000227068
0.000227633
0.000228192
0.000228746
0.000229294
0.000229835
0.000230368
0.000230893
0.000231408
0.000231914
0.000232408
0.000232875
0.000233307
0.000233711
0.00023409
0.000234447
0.000234785
0.000235107
0.000235414
0.000235709
0.00023599
0.00023626
0.000236516
0.000236759
0.000236984
0.000237191
0.000237377
0.000237538
0.00023767
0.000237777
0.000237851
0.000237876
0.000237855
0.00023779
0.00023768
0.000237525
0.000237327
0.000237089
0.000236813
0.000236506
0.000236172
0.000235817
0.000235449
0.000235078
0.000234718
0.000234383
0.000234091
0.000233856
0.000233693
0.000233612
0.00023362
0.000233717
0.000233906
0.000234186
0.000234558
0.000235027
0.000235597
0.000236266
0.000237021
0.000237805
0.000238695
0.000239606
0.00024068
0.000241614
0.000242946
0.000245099
0.000250132
0.000263495
0.000286472
0.000305282
0.000307272
0.000323417
0.000292837
0.000262639
0.000254536
0.000248829
0.000245961
0.000242178
0.00023772
0.000231111
0.000223541
0.000125258
0.000176352
0.000197468
0.000206255
0.000210658
0.000213178
0.00021474
0.00021575
0.000216436
0.000216941
0.00021736
0.000217752
0.000218149
0.000218567
0.000219012
0.000219489
0.000219998
0.000220541
0.000221117
0.000221727
0.000222348
0.000222966
0.000223582
0.000224194
0.000224804
0.00022541
0.000226014
0.000226614
0.000227211
0.000227804
0.000228394
0.000228979
0.000229559
0.000230133
0.000230701
0.000231261
0.000231814
0.000232357
0.00023289
0.000233412
0.000233922
0.000234417
0.000234896
0.000235343
0.000235762
0.000236156
0.000236529
0.000236881
0.000237215
0.00023753
0.000237827
0.000238104
0.000238362
0.000238598
0.00023881
0.000238996
0.000239154
0.000239284
0.000239384
0.000239439
0.000239445
0.000239406
0.000239325
0.000239198
0.000239027
0.000238812
0.000238558
0.000238269
0.000237949
0.000237605
0.000237242
0.000236866
0.000236485
0.00023611
0.000235753
0.00023543
0.000235156
0.000234946
0.000234812
0.00023476
0.000234796
0.000234923
0.000235145
0.000235464
0.000235882
0.0002364
0.00023701
0.000237701
0.000238422
0.000239241
0.000240058
0.000240987
0.000241778
0.000242941
0.00024512
0.000250181
0.000263622
0.000286646
0.000304877
0.000306913
0.000328655
0.000299595
0.000265841
0.000255982
0.000249201
0.000245621
0.000241715
0.000237395
0.000231313
0.00022393
0.000125159
0.000176549
0.000197742
0.000206596
0.000211042
0.000213585
0.000215163
0.000216181
0.000216865
0.000217365
0.000217785
0.000218185
0.000218593
0.000219025
0.000219486
0.000219979
0.000220507
0.00022107
0.000221669
0.000222301
0.000222942
0.00022358
0.000224217
0.000224851
0.000225483
0.000226112
0.000226739
0.000227364
0.000227987
0.000228607
0.000229223
0.000229836
0.000230445
0.000231049
0.000231647
0.000232238
0.000232821
0.000233396
0.00023396
0.000234513
0.000235053
0.000235579
0.000236089
0.000236581
0.000237053
0.000237505
0.000237933
0.000238332
0.000238705
0.000239052
0.000239375
0.000239671
0.000239941
0.000240182
0.000240393
0.000240572
0.000240719
0.00024084
0.000240925
0.000240966
0.000240969
0.000240934
0.000240859
0.000240738
0.00024057
0.000240354
0.000240095
0.000239796
0.000239464
0.000239106
0.000238731
0.000238343
0.00023795
0.000237559
0.00023718
0.000236826
0.000236513
0.000236256
0.000236066
0.000235954
0.000235925
0.000235988
0.000236146
0.000236404
0.000236765
0.00023723
0.000237788
0.000238429
0.000239106
0.000239873
0.000240612
0.000241421
0.000242089
0.000243142
0.000245381
0.000250483
0.000263728
0.000286415
0.00030401
0.000306198
0.000336392
0.000309332
0.000271005
0.000257575
0.000249763
0.000245116
0.000241013
0.000236728
0.000231222
0.000224233
0.000125043
0.000176757
0.000198034
0.000206965
0.000211455
0.000214021
0.000215618
0.000216642
0.000217319
0.000217815
0.000218238
0.000218647
0.000219068
0.000219516
0.000219995
0.000220508
0.000221058
0.000221644
0.000222267
0.000222924
0.000223586
0.000224247
0.000224906
0.000225563
0.000226219
0.000226873
0.000227526
0.000228178
0.000228828
0.000229477
0.000230123
0.000230767
0.000231407
0.000232043
0.000232675
0.0002333
0.000233918
0.000234527
0.000235126
0.000235714
0.000236288
0.000236847
0.000237388
0.00023791
0.000238411
0.000238889
0.000239341
0.000239768
0.000240167
0.000240538
0.000240879
0.00024119
0.000241468
0.000241713
0.000241924
0.0002421
0.000242248
0.000242363
0.000242442
0.000242473
0.000242471
0.000242435
0.000242362
0.000242247
0.000242089
0.000241887
0.000241641
0.000241352
0.000241023
0.00024066
0.000240273
0.000239872
0.000239464
0.000239056
0.000238657
0.000238275
0.000237925
0.00023762
0.000237376
0.000237202
0.000237108
0.000237102
0.000237191
0.000237382
0.00023768
0.000238088
0.0002386
0.000239202
0.000239849
0.000240577
0.000241253
0.000241992
0.000242583
0.000243627
0.000245953
0.00025109
0.000263831
0.00028564
0.000302472
0.000304961
0.000346762
0.000321795
0.000277957
0.000258817
0.000250397
0.00024458
0.0002402
0.000235765
0.000230712
0.000224268
0.000124911
0.00017698
0.00019835
0.000207368
0.0002119
0.000214493
0.000216111
0.000217134
0.000217799
0.000218291
0.00021872
0.00021914
0.000219577
0.000220042
0.000220542
0.000221077
0.000221651
0.000222263
0.000222915
0.000223599
0.000224283
0.000224967
0.000225649
0.000226331
0.000227012
0.000227693
0.000228374
0.000229054
0.000229734
0.000230414
0.000231093
0.00023177
0.000232445
0.000233117
0.000233785
0.000234448
0.000235104
0.000235752
0.000236391
0.000237018
0.00023763
0.000238225
0.000238802
0.000239357
0.000239888
0.000240394
0.000240872
0.00024132
0.000241739
0.000242125
0.000242478
0.000242798
0.000243084
0.000243335
0.000243551
0.000243733
0.000243885
0.000243999
0.000244072
0.000244099
0.00024409
0.000244044
0.000243959
0.000243834
0.000243666
0.000243456
0.000243206
0.000242917
0.000242592
0.000242234
0.000241847
0.000241438
0.000241017
0.000240592
0.000240172
0.000239765
0.000239382
0.000239034
0.000238736
0.000238502
0.000238342
0.000238266
0.000238284
0.000238402
0.00023863
0.000238973
0.000239433
0.000240004
0.00024063
0.000241329
0.00024196
0.000242694
0.000243282
0.000244428
0.000246845
0.000251987
0.000264003
0.000284463
0.00030044
0.000303239
0.000358947
0.000335388
0.000284814
0.000259569
0.000251394
0.000244323
0.000239814
0.000235052
0.00023025
0.000224262
0.000124764
0.000177225
0.000198694
0.000207806
0.000212382
0.000215008
0.000216646
0.000217655
0.000218307
0.000218797
0.000219233
0.000219667
0.000220121
0.000220606
0.000221127
0.000221688
0.000222289
0.000222931
0.000223615
0.000224324
0.000225032
0.00022574
0.000226447
0.000227155
0.000227862
0.000228571
0.000229281
0.000229992
0.000230704
0.000231417
0.000232131
0.000232844
0.000233557
0.000234268
0.000234976
0.000235681
0.000236381
0.000237073
0.000237755
0.000238425
0.00023908
0.000239717
0.000240332
0.000240925
0.00024149
0.000242028
0.000242534
0.000243009
0.000243449
0.000243853
0.000244222
0.000244552
0.000244845
0.0002451
0.000245316
0.000245502
0.000245654
0.000245771
0.000245847
0.000245876
0.000245861
0.000245805
0.000245704
0.000245558
0.000245367
0.000245132
0.000244858
0.000244549
0.000244207
0.000243837
0.000243444
0.000243029
0.000242598
0.000242157
0.000241717
0.000241285
0.000240871
0.000240485
0.00024014
0.000239848
0.000239624
0.000239478
0.000239422
0.000239466
0.000239618
0.000239889
0.000240285
0.00024081
0.000241415
0.000242105
0.000242719
0.000243514
0.00024417
0.000245494
0.00024799
0.000253104
0.000264331
0.000283154
0.000298014
0.00030088
0.00037272
0.000348858
0.000289561
0.000260634
0.000252813
0.000244629
0.000240201
0.000234948
0.000230204
0.000224429
0.000124602
0.000177497
0.000199073
0.000208285
0.000212912
0.000215573
0.000217219
0.000218206
0.000218844
0.000219334
0.00021978
0.000220228
0.000220701
0.000221208
0.000221754
0.000222342
0.000222972
0.000223648
0.000224367
0.0002251
0.000225832
0.000226565
0.000227297
0.000228031
0.000228767
0.000229505
0.000230245
0.000230988
0.000231734
0.000232482
0.000233233
0.000233985
0.000234739
0.000235493
0.000236247
0.000236998
0.000237746
0.000238488
0.000239219
0.000239939
0.000240642
0.000241325
0.000241986
0.000242621
0.000243227
0.000243801
0.000244342
0.000244846
0.000245312
0.000245738
0.000246124
0.000246468
0.00024677
0.00024703
0.00024725
0.000247439
0.000247588
0.000247698
0.000247779
0.00024782
0.000247807
0.000247741
0.000247622
0.000247451
0.000247228
0.000246959
0.000246647
0.000246299
0.00024592
0.000245517
0.000245096
0.000244659
0.000244209
0.00024375
0.000243286
0.000242827
0.000242382
0.00024196
0.000241571
0.000241228
0.000240943
0.000240731
0.000240602
0.00024057
0.000240644
0.000240836
0.000241157
0.000241616
0.000242177
0.000242872
0.0002435
0.000244411
0.000245195
0.000246724
0.000249282
0.00025435
0.000264861
0.000282106
0.000295514
0.000297984
0.000390331
0.000363089
0.000294312
0.000263489
0.000254828
0.000245919
0.000241364
0.000235556
0.000230726
0.000224897
0.000124426
0.000177801
0.000199492
0.000208801
0.000213498
0.000216194
0.000217828
0.000218786
0.000219412
0.000219905
0.000220362
0.000220827
0.00022132
0.00022185
0.000222423
0.00022304
0.000223704
0.000224416
0.000225169
0.000225926
0.000226682
0.000227439
0.000228198
0.000228958
0.000229722
0.00023049
0.000231261
0.000232038
0.000232818
0.000233603
0.000234393
0.000235188
0.000235986
0.000236788
0.000237593
0.000238398
0.000239201
0.000239999
0.000240788
0.000241565
0.000242324
0.000243063
0.000243778
0.000244464
0.000245118
0.000245737
0.000246317
0.000246856
0.000247353
0.000247804
0.000248209
0.000248568
0.00024888
0.000249145
0.000249375
0.000249563
0.000249709
0.000249814
0.000249892
0.00024995
0.000249947
0.000249877
0.00024974
0.000249539
0.000249278
0.000248963
0.000248601
0.000248201
0.000247769
0.000247313
0.000246842
0.000246361
0.000245874
0.000245382
0.000244886
0.000244393
0.000243911
0.00024345
0.000243017
0.000242625
0.000242284
0.000242009
0.000241811
0.000241704
0.000241699
0.000241809
0.000242046
0.000242423
0.000242921
0.000243604
0.000244256
0.000245316
0.000246271
0.000248007
0.000250628
0.000255666
0.000265517
0.000281397
0.000293399
0.000295339
0.000411133
0.000380229
0.000304173
0.00026931
0.000257863
0.000248401
0.000243107
0.000236757
0.00023169
0.000225638
0.000124238
0.000178139
0.000199954
0.000209348
0.000214142
0.000216876
0.000218472
0.000219397
0.000220013
0.00022051
0.000220979
0.000221462
0.000221977
0.000222534
0.000223135
0.000223785
0.000224486
0.000225238
0.000226019
0.000226799
0.000227578
0.000228359
0.000229143
0.00022993
0.000230721
0.000231519
0.000232322
0.000233132
0.000233948
0.000234773
0.000235605
0.000236446
0.000237295
0.000238152
0.000239015
0.000239882
0.00024075
0.000241615
0.000242473
0.000243319
0.000244149
0.000244958
0.000245742
0.000246494
0.00024721
0.000247884
0.000248512
0.00024909
0.000249617
0.000250093
0.000250516
0.000250887
0.000251206
0.000251478
0.000251713
0.0002519
0.000252041
0.000252141
0.000252216
0.000252275
0.000252302
0.000252238
0.000252086
0.000251853
0.000251546
0.000251175
0.000250749
0.000250281
0.000249779
0.000249254
0.000248714
0.000248168
0.00024762
0.000247075
0.000246531
0.000245992
0.000245463
0.000244954
0.000244472
0.000244027
0.000243631
0.000243294
0.00024303
0.00024285
0.000242767
0.000242793
0.000242941
0.00024323
0.000243653
0.000244303
0.000244976
0.000246143
0.000247286
0.000249239
0.000251948
0.000257019
0.000266114
0.000280529
0.000291697
0.000293496
0.000428216
0.000395689
0.000316462
0.000279646
0.00026219
0.000251709
0.000245065
0.000238171
0.000232827
0.000226545
0.000124034
0.000178509
0.000200465
0.000209957
0.000214849
0.000217603
0.000219146
0.00022004
0.000220647
0.00022115
0.000221634
0.000222136
0.000222675
0.000223259
0.000223892
0.000224578
0.000225318
0.000226111
0.000226913
0.000227714
0.000228515
0.000229318
0.000230125
0.000230937
0.000231756
0.000232582
0.000233416
0.00023426
0.000235115
0.000235982