/*--------------------------------*- C++ -*----------------------------------*\
| =========                 |                                                 |
| \\      /  F ield         | OpenFOAM: The Open Source CFD Toolbox           |
|  \\    /   O peration     | Version:  v2106                                 |
|   \\  /    A nd           | Website:  www.openfoam.com                      |
|    \\/     M anipulation  |                                                 |
\*---------------------------------------------------------------------------*/
FoamFile
{
    version     2.0;
    format      ascii;
    arch        "LSB;label=32;scalar=64";
    class       volScalarField;
    location    "1.7";
    object      nut;
}
// * * * * * * * * * * * * * * * * * * * * * * * * * * * * * * * * * * * * * //

dimensions      [0 2 -1 0 0 0 0];

internalField   nonuniform List<scalar> 
29678
(
6.35094e-06
0.000116383
0.000314176
0.000574756
0.000838399
0.00106035
0.000998331
0.000838207
0.000714431
0.000616461
0.000535277
0.000466468
0.000407391
0.000356214
0.000311528
0.000272183
0.000237217
0.000205826
0.000177326
0.000151139
0.000126778
0.000103927
8.24658e-05
6.2287e-05
4.35083e-05
2.92095e-05
1.56519e-05
1.71809e-05
4.13161e-05
6.48593e-05
9.0544e-05
0.000118842
0.000149162
0.00018212
0.000217553
0.000256335
0.000296879
0.000352249
0.000441292
0.000573157
0.000833127
0.00111034
0.00112117
0.00113126
0.000967756
0.00064567
0.000516956
0.000433871
0.000358434
0.000303067
0.000265245
0.000233873
0.000207512
0.000187017
0.000170213
0.000155888
0.000142543
0.000130709
0.000120519
0.000111522
0.000104494
9.76523e-05
8.37014e-05
1.28882e-05
1.42962e-05
1.53348e-05
0.000300108
1.48781e-05
1.64771e-05
0.000334154
0.00025627
1.93413e-05
0.000335734
0.000265484
0.000233114
0.000209044
0.000192436
0.000204509
0.000143194
0.000149245
2.32736e-05
2.24783e-05
2.62185e-05
0.000115298
0.000103677
9.294e-05
0.000125819
3.76688e-05
0.000450432
3.94305e-05
4.39625e-05
0.000311174
4.10241e-05
4.00237e-05
4.49411e-05
5.40157e-05
7.97407e-05
4.41888e-05
3.34779e-05
4.66405e-05
7.77796e-05
5.33959e-05
7.68619e-05
5.52178e-05
6.87073e-05
6.12837e-05
7.47857e-05
7.91702e-05
9.63741e-05
8.50106e-05
6.34811e-06
0.000116327
0.00031416
0.000574823
0.000837974
0.000865584
0.000723887
0.000612217
0.00052491
0.000453819
0.00039461
0.000344435
0.000301392
0.000264126
0.0002316
0.000202988
0.000177621
0.000154963
0.000134588
0.000116199
9.96881e-05
8.51534e-05
7.27588e-05
6.19883e-05
5.09153e-05
3.62905e-05
2.52154e-05
3.11683e-05
4.77059e-05
7.04117e-05
9.40034e-05
0.000119224
0.00014646
0.000176915
0.000210756
0.000248885
0.000291267
0.000350072
0.000439775
0.000570086
0.000799649
0.00112615
0.00106557
0.000791428
0.000567874
0.00043454
0.000360904
0.00030785
0.000263299
0.00022935
0.000203833
0.000182438
0.000164739
0.000150491
0.000138529
0.000128205
0.000118718
0.000110413
0.000103258
9.7524e-05
9.41218e-05
9.444e-05
0.000102241
0.000104064
0.000106061
0.000484355
0.000248434
0.000328826
0.000612699
0.000279845
0.00020481
0.000250874
0.00022892
0.000185375
0.000164814
0.000152519
0.000150017
0.000161112
0.00012336
0.000159583
0.000278793
0.000332592
0.000580076
0.000133858
9.95093e-05
8.72072e-05
0.000157055
0.000488906
0.000275958
0.000456931
0.000463587
0.000247544
0.000187427
0.000104816
6.68002e-05
5.49463e-05
6.06804e-05
8.32861e-05
2.86685e-05
4.42487e-05
0.00012558
4.77547e-05
6.14616e-05
4.50667e-05
4.8701e-05
3.74395e-05
3.57368e-05
3.38454e-05
4.52181e-05
4.53339e-05
6.33646e-06
0.00011626
0.000314156
0.000574942
0.000837765
0.000796722
0.000672124
0.000574378
0.000496201
0.000431868
0.000377843
0.00033171
0.000291849
0.000257112
0.00022663
0.000199712
0.000175798
0.000154441
0.00013527
0.000117987
0.000102348
8.80472e-05
7.46307e-05
6.19746e-05
5.13294e-05
4.47619e-05
4.66946e-05
5.36198e-05
6.06688e-05
7.20757e-05
8.61561e-05
0.00010259
0.000121211
0.000142274
0.000166215
0.000193886
0.00022657
0.000267928
0.000323972
0.000401705
0.000512243
0.000663402
0.000790748
0.00074397
0.00059318
0.000469576
0.000390074
0.000335111
0.000291906
0.000257562
0.000230608
0.000208553
0.000189976
0.000174441
0.000161379
0.000150214
0.000140413
0.000131786
0.000124318
0.000117951
0.000112955
0.000109298
0.000106638
0.000122145
0.000225883
0.0010217
0.000585993
0.000409394
0.000495177
0.000372023
0.000296306
0.0002754
0.000249641
0.000223324
0.000206076
0.00019439
0.000187122
0.000183534
0.000175501
0.000182587
0.000222378
0.000220192
0.000222054
0.000156851
0.00014712
0.000148007
0.000167248
0.000247481
0.000279597
0.000346401
0.000381893
0.000269539
0.000240186
0.0001532
9.92008e-05
6.44241e-05
7.08529e-05
8.60191e-05
0.00011081
7.88779e-05
6.59565e-05
5.0055e-05
5.86881e-05
4.9448e-05
5.07557e-05
4.09327e-05
3.85578e-05
4.07271e-05
4.99835e-05
4.70241e-05
6.31878e-06
0.000116224
0.000314239
0.000575191
0.000837793
0.000756446
0.000650658
0.000563052
0.000490539
0.000429523
0.000377514
0.000332639
0.000293578
0.00025937
0.000229271
0.000202676
0.000179087
0.000158098
0.00013937
0.000122621
0.000107653
9.43301e-05
8.26356e-05
7.27635e-05
6.45799e-05
5.69471e-05
5.03433e-05
5.09425e-05
5.82767e-05
6.92603e-05
8.25334e-05
9.7593e-05
0.000114486
0.000133502
0.000154973
0.000179598
0.000208493
0.000243944
0.000288706
0.000344927
0.000412905
0.000485747
0.000538379
0.000537026
0.000483167
0.000414236
0.00035591
0.000309939
0.000272685
0.000242479
0.000218043
0.000197868
0.000180979
0.000166849
0.000154991
0.000144997
0.000136602
0.000129785
0.000124698
0.000121709
0.000121687
0.000126332
0.00014167
0.000177305
0.000246324
0.000349423
0.000344119
0.000328665
0.000341129
0.0002932
0.000250822
0.000232438
0.000214081
0.000195598
0.000181738
0.000172205
0.000166716
0.000164999
0.000162558
0.000173944
0.00019591
0.000190138
0.000193801
0.00016066
0.000144551
0.000143822
0.000168257
0.000211544
0.000215477
0.00022398
0.000218554
0.000182464
0.000153812
0.000115755
8.835e-05
6.64263e-05
8.25637e-05
0.000129226
0.000138185
7.67637e-05
6.57638e-05
6.96875e-05
6.83298e-05
5.73009e-05
5.56698e-05
4.6767e-05
4.21739e-05
4.07991e-05
4.39561e-05
3.87004e-05
6.29513e-06
0.000116223
0.000314412
0.000575545
0.000811757
0.000715299
0.000626131
0.000548715
0.00048207
0.000424725
0.000375093
0.000331807
0.00029385
0.00026045
0.000230988
0.000204947
0.000181886
0.000161439
0.000143298
0.0001272
0.000112966
0.000100477
8.96907e-05
8.06351e-05
7.34553e-05
6.88457e-05
6.81625e-05
7.2365e-05
8.02766e-05
9.04886e-05
0.000102458
0.000116172
0.000131802
0.000149555
0.000169743
0.000192866
0.000219682
0.000251281
0.00028853
0.000331016
0.000375336
0.000413302
0.000433483
0.000427483
0.000397479
0.000356295
0.000316418
0.00028205
0.000253096
0.000228989
0.000209021
0.000192368
0.000178411
0.000166744
0.000157046
0.000149074
0.000142691
0.000137913
0.000134905
0.00013402
0.000135901
0.000141622
0.000152742
0.000173078
0.000212939
0.000263441
0.000286101
0.000288882
0.000286669
0.000270428
0.000250478
0.000235007
0.000221602
0.000209304
0.000198755
0.000190302
0.000184859
0.000182737
0.000182981
0.000187183
0.000193109
0.00019234
0.00018849
0.000176448
0.000168877
0.000169546
0.000178811
0.000191926
0.000194879
0.000195158
0.000186173
0.000161895
0.000136319
0.000106632
8.2054e-05
6.22639e-05
7.3227e-05
0.000116901
0.00018252
8.36502e-05
8.20221e-05
8.27813e-05
7.30857e-05
6.18833e-05
5.78646e-05
5.03716e-05
4.58204e-05
4.47506e-05
4.71857e-05
4.01804e-05
6.26603e-06
0.000116258
0.000314669
0.000575888
0.000751646
0.00067385
0.000599231
0.000531751
0.000471314
0.000418013
0.0003711
0.000329708
0.000293123
0.000260761
0.00023213
0.000206798
0.000184386
0.000164568
0.00014707
0.000131648
0.000118132
0.000106411
9.64248e-05
8.81745e-05
8.17077e-05
7.71646e-05
7.48616e-05
7.54095e-05
7.9022e-05
8.51723e-05
9.3381e-05
0.000103357
0.000115
0.000128343
0.000143486
0.000160644
0.000180137
0.000202301
0.000227195
0.000254114
0.000281017
0.000304265
0.000319482
0.000323133
0.000314283
0.000296041
0.000273867
0.000251714
0.000231297
0.000213225
0.000197575
0.000184149
0.000172699
0.000163017
0.000154932
0.000148317
0.000143116
0.000139377
0.00013727
0.000137125
0.000139531
0.000145492
0.000156687
0.000175576
0.00020201
0.000227847
0.000243683
0.000249539
0.000248974
0.000241108
0.000229393
0.000218003
0.000207205
0.000196934
0.000187647
0.000179976
0.000174697
0.000171997
0.00017119
0.000172526
0.000174249
0.000172397
0.000169191
0.000163707
0.000159253
0.000159002
0.000163428
0.000168917
0.000169038
0.000165647
0.000157053
0.000142463
0.000127361
0.000109588
8.68742e-05
7.15996e-05
7.58561e-05
0.000115759
0.000165386
9.16e-05
9.2914e-05
0.000103947
7.84099e-05
6.62702e-05
6.11252e-05
5.46946e-05
5.04057e-05
4.81864e-05
4.86547e-05
3.99813e-05
6.23211e-06
0.000116331
0.000315006
0.000576212
0.000699876
0.000636225
0.000573355
0.000514568
0.000460049
0.000410746
0.000366569
0.000327111
0.000291945
0.00026067
0.000232914
0.000208328
0.000186593
0.000167421
0.000150566
0.000135802
0.000122958
0.000111918
0.000102615
9.5034e-05
8.92281e-05
8.53496e-05
8.37424e-05
8.48479e-05
8.86037e-05
9.45636e-05
0.000102352
0.000111733
0.000122587
0.00013488
0.000148617
0.000163856
0.000180631
0.000198834
0.000218008
0.000237092
0.00025433
0.000267558
0.000274903
0.000275351
0.000268972
0.000257188
0.000242418
0.000226848
0.000211822
0.000198021
0.000185723
0.000174969
0.000165698
0.000157831
0.000151304
0.000146072
0.000142144
0.000139598
0.000138605
0.000139455
0.000142596
0.000148654
0.000158325
0.000171524
0.000187668
0.000203746
0.000215296
0.000221324
0.000222568
0.000219384
0.000213286
0.000206149
0.000198817
0.000191675
0.000185159
0.000179807
0.000176142
0.00017427
0.000173779
0.000174208
0.000174572
0.000173461
0.000171059
0.000167559
0.000164481
0.000163042
0.000163097
0.00016282
0.000159693
0.000153954
0.000144741
0.000131681
0.000116394
0.00010049
8.19546e-05
7.11611e-05
7.47914e-05
0.000115507
0.000168493
9.8818e-05
0.000105656
0.00012434
8.14275e-05
6.76109e-05
6.30022e-05
5.76526e-05
5.47935e-05
5.26706e-05
5.24148e-05
4.21975e-05
6.19406e-06
0.000116441
0.000315413
0.000576535
0.000657885
0.000604484
0.000550591
0.000498798
0.000449384
0.000403656
0.000361967
0.000324285
0.000290437
0.00026019
0.000233279
0.000209433
0.000188382
0.000169865
0.000153646
0.00013951
0.000127275
0.00011682
0.000108071
0.000100998
9.56245e-05
9.20351e-05
9.0375e-05
9.07713e-05
9.31778e-05
9.73763e-05
0.000103121
0.000110224
0.000118563
0.000128072
0.000138692
0.000150369
0.000163018
0.000176431
0.000190182
0.000203541
0.00021548
0.00022485
0.000230656
0.000232291
0.000229672
0.000223366
0.000214504
0.00020435
0.000193914
0.000183869
0.000174601
0.000166302
0.000159047
0.000152862
0.000147757
0.000143745
0.00014087
0.000139214
0.000138916
0.000140174
0.000143245
0.000148513
0.000155772
0.000165268
0.000176383
0.000187037
0.000195441
0.000200681
0.000202715
0.000201839
0.000198797
0.000194511
0.000189633
0.000184587
0.000179763
0.000175574
0.00017235
0.000170138
0.000168693
0.00016768
0.000166589
0.00016486
0.000162544
0.000159837
0.000157248
0.000155216
0.000153583
0.000151466
0.00014774
0.000142118
0.000134575
0.00012468
0.000112719
0.000101594
8.49949e-05
7.51887e-05
7.44536e-05
0.00011247
0.000168415
9.69134e-05
0.000107861
0.000147067
8.36182e-05
6.97886e-05
6.61534e-05
6.18418e-05
6.02144e-05
5.79903e-05
5.6739e-05
4.47974e-05
6.15261e-06
0.000116591
0.000315884
0.000576866
0.000625358
0.000579163
0.000531872
0.000485371
0.00043999
0.000397148
0.000357489
0.000321276
0.000288554
0.000259232
0.000233135
0.000210039
0.00018969
0.000171831
0.000156225
0.00014266
0.000130952
0.000120978
0.000112655
0.000105939
0.000100822
9.73307e-05
9.5514e-05
9.53996e-05
9.69356e-05
9.999e-05
0.000104403
0.000110024
0.000116727
0.000124408
0.00013297
0.000142283
0.000152188
0.000162434
0.000172634
0.000182246
0.00019062
0.000197099
0.000201156
0.000202492
0.000201092
0.00019726
0.000191585
0.000184779
0.0001775
0.000170256
0.000163395
0.000157135
0.000151603
0.000146876
0.000143006
0.000140042
0.000138041
0.000137083
0.000137273
0.000138739
0.000141688
0.000146031
0.000151787
0.000159121
0.000167141
0.000174831
0.000181186
0.000185589
0.000187872
0.000188176
0.000186873
0.000184457
0.000181365
0.000177953
0.000174552
0.000171478
0.00016896
0.000167055
0.000165647
0.000164529
0.000163408
0.000161977
0.000160133
0.000157929
0.000155554
0.000153139
0.000150541
0.000147367
0.000143049
0.00013713
0.000129971
0.000120856
0.000110166
0.000100923
8.68246e-05
8.067e-05
7.52404e-05
0.000108524
0.000160574
8.9323e-05
0.000105314
0.00017572
8.71988e-05
7.48079e-05
7.15091e-05
6.77494e-05
6.65296e-05
6.41384e-05
6.20703e-05
4.81716e-05
6.10851e-06
0.00011678
0.000316408
0.000577207
0.000601494
0.000560176
0.000517515
0.000474742
0.000432197
0.000391357
0.00035312
0.000318002
0.000286218
0.000257762
0.00023249
0.000210163
0.000190513
0.000173279
0.000158224
0.000145149
0.000133877
0.000124284
0.000116278
0.000109799
0.00010481
0.000101295
9.92463e-05
9.8642e-05
9.94219e-05
0.000101483
0.000104701
0.000108948
0.000114106
0.000120064
0.000126712
0.000133905
0.000141465
0.000149164
0.000156701
0.0001637
0.000169752
0.000174466
0.000177535
0.000178789
0.000178217
0.000175986
0.000172421
0.000167938
0.000162962
0.00015786
0.000152917
0.000148336
0.00014426
0.000140787
0.000137991
0.000135936
0.000134685
0.000134309
0.000134893
0.000136537
0.000139273
0.000142904
0.000147676
0.000153313
0.000159339
0.000165144
0.000170123
0.000173852
0.000176155
0.000177062
0.000176776
0.000175587
0.000173778
0.00017161
0.000169327
0.000167151
0.000165233
0.000163617
0.000162247
0.000161009
0.000159741
0.000158271
0.000156496
0.000154406
0.000152052
0.000149456
0.000146498
0.00014297
0.00013866
0.000132943
0.000126453
0.00011846
0.000109331
0.000101882
8.89858e-05
8.60505e-05
7.63643e-05
0.000103713
0.000150124
7.99163e-05
9.93775e-05
0.000212209
9.66173e-05
8.46114e-05
7.93192e-05
7.53851e-05
7.38632e-05
7.09601e-05
6.8138e-05
5.20604e-05
6.06255e-06
0.00011701
0.000316979
0.000577561
0.000585521
0.000547269
0.00050757
0.000467033
0.000426009
0.000386168
0.000348727
0.000314407
0.000283471
0.000255882
0.000231431
0.000209837
0.000190819
0.000174127
0.000159544
0.000146884
0.000135974
0.000126684
0.000118912
0.000112582
0.000107633
0.000104022
0.000101706
0.000100638
0.000100751
0.000101954
0.000104142
0.000107206
0.000111037
0.000115528
0.000120564
0.000126017
0.000131715
0.000137466
0.00014304
0.000148181
0.000152622
0.000156122
0.000158495
0.000159636
0.000159538
0.000158298
0.000156105
0.000153211
0.000149888
0.000146394
0.000142948
0.000139722
0.000136847
0.000134426
0.000132536
0.000131245
0.000130613
0.0001307
0.000131566
0.000133306
0.00013574
0.000138882
0.000142851
0.000147355
0.000152111
0.000156733
0.000160833
0.000164113
0.00016641
0.000167704
0.0001681
0.000167767
0.000166893
0.000165661
0.000164244
0.000162787
0.00016139
0.000160089
0.000158869
0.000157675
0.00015642
0.000154999
0.000153324
0.00015135
0.000149069
0.000146462
0.000143452
0.000139852
0.000135827
0.000130406
0.000124585
0.000117612
0.000109738
0.000103922
9.20188e-05
9.25701e-05
7.85082e-05
0.000101819
0.00014779
7.36228e-05
9.30305e-05
0.000231893
0.000109693
9.53369e-05
8.78984e-05
8.34429e-05
8.16122e-05
7.81934e-05
7.48449e-05
5.63386e-05
6.01551e-06
0.000117282
0.000317593
0.000577948
0.000576871
0.00054023
0.00050195
0.000462052
0.00042112
0.000381331
0.000344249
0.000310601
0.000280487
0.000253712
0.000229982
0.000209002
0.000190516
0.000174291
0.000160121
0.000147822
0.000137219
0.000128173
0.000120573
0.000114329
0.000109365
0.000105618
0.000103026
0.000101529
0.000101053
0.000101515
0.000102822
0.000104879
0.000107586
0.000110843
0.000114543
0.000118571
0.000122795
0.000127048
0.000131157
0.000134944
0.000138233
0.000140868
0.000142731
0.000143758
0.00014394
0.000143336
0.00014206
0.000140268
0.000138139
0.00013585
0.000133563
0.000131416
0.000129522
0.000127975
0.000126848
0.000126205
0.000126101
0.000126582
0.000127748
0.000129453
0.000131761
0.000134614
0.000137968
0.000141719
0.00014565
0.000149504
0.000153026
0.000155999
0.000158283
0.000159831
0.000160686
0.000160946
0.000160741
0.000160203
0.000159451
0.000158582
0.000157657
0.000156704
0.000155723
0.000154692
0.000153559
0.000152252
0.000150699
0.000148851
0.00014668
0.000144159
0.00014126
0.000137755
0.000134126
0.000129088
0.000123947
0.00011793
0.000111068
0.000106769
9.58159e-05
9.95223e-05
8.19743e-05
0.000102625
0.000156411
6.99898e-05
8.67559e-05
0.00021496
0.000121649
0.000102635
9.53159e-05
9.08868e-05
8.9262e-05
8.55418e-05
8.20606e-05
6.08919e-05
5.9682e-06
0.000117599
0.000318251
0.000578416
0.000575277
0.000538949
0.000500374
0.000459264
0.000417056
0.000376704
0.000339828
0.000306787
0.00027736
0.000251216
0.000228041
0.000207565
0.000189541
0.000173737
0.00015994
0.000147961
0.000137622
0.000128774
0.000121301
0.000115103
0.000110093
0.000106195
0.000103337
0.00010145
0.000100458
0.000100284
0.000100843
0.000102049
0.000103813
0.000106045
0.00010865
0.000111528
0.00011457
0.000117659
0.000120662
0.000123443
0.000125885
0.000127886
0.000129367
0.000130286
0.000130636
0.000130451
0.000129803
0.000128791
0.000127531
0.000126147
0.000124756
0.000123466
0.000122369
0.000121544
0.000121058
0.000120966
0.000121318
0.000122188
0.0001235
0.00012531
0.000127495
0.000130052
0.000133009
0.000136259
0.00013965
0.000143007
0.000146154
0.000148934
0.000151234
0.000152995
0.000154213
0.000154937
0.00015525
0.000155248
0.000155019
0.000154631
0.000154125
0.000153518
0.000152814
0.000151998
0.000151036
0.000149877
0.000148466
0.000146761
0.000144735
0.000142365
0.00013966
0.000136353
0.000133157
0.000128598
0.000124148
0.000119069
0.00011305
0.000110202
0.000100248
0.000106798
8.71291e-05
0.000108768
0.000182991
6.9051e-05
8.32999e-05
0.000182747
0.000130029
0.000106514
0.000100559
9.7218e-05
9.64209e-05
9.28347e-05
8.97128e-05
6.56583e-05
5.92142e-06
0.000117958
0.000318949
0.000579041
0.00058083
0.000543305
0.000502216
0.000457901
0.000413467
0.000372373
0.000335636
0.000302986
0.000273976
0.000248256
0.000225522
0.000205487
0.000187884
0.000172467
0.00015901
0.000147319
0.000137211
0.000128531
0.000121158
0.000114983
0.000109914
0.000105867
0.000102764
0.000100532
9.90951e-05
9.83794e-05
9.83076e-05
9.88018e-05
9.97832e-05
0.000101172
0.000102886
0.000104842
0.000106951
0.000109123
0.000111264
0.000113286
0.000115097
0.000116621
0.00011781
0.000118632
0.000119082
0.000119181
0.000118973
0.000118521
0.000117903
0.000117205
0.000116512
0.000115905
0.000115456
0.000115231
0.000115286
0.000115668
0.000116429
0.0001176
0.000119088
0.000121092
0.000123066
0.000125443
0.000128134
0.000131054
0.000134095
0.000137133
0.000140041
0.000142707
0.00014504
0.000146981
0.000148502
0.000149613
0.000150356
0.000150794
0.000150993
0.000151007
0.000150867
0.000150588
0.000150169
0.000149596
0.00014884
0.000147862
0.000146622
0.000145087
0.000143236
0.000141055
0.000138579
0.000135514
0.000132736
0.000128669
0.000124859
0.000120708
0.000115424
0.000113938
0.000104889
0.000113601
9.35763e-05
0.000118648
0.000216262
6.94853e-05
8.18561e-05
0.000156842
0.000137511
0.000109301
0.000103668
0.000102786
0.000102922
0.000100037
9.77273e-05
7.06185e-05
5.87594e-06
0.000118356
0.000319666
0.000579903
0.000593952
0.000552928
0.00050645
0.000457245
0.000410264
0.000368419
0.000331563
0.00029897
0.000270154
0.000244748
0.000222396
0.000202763
0.000185551
0.000170493
0.000157353
0.000145929
0.000136031
0.000127502
0.000120214
0.000114056
0.00010893
0.000104747
0.000101428
9.88977e-05
9.70829e-05
9.5912e-05
9.53142e-05
9.52193e-05
9.55574e-05
9.62588e-05
9.72541e-05
9.84734e-05
9.98467e-05
0.000101304
0.000102777
0.0001042
0.000105516
0.000106675
0.000107639
0.000108379
0.000108891
0.000109186
0.000109294
0.000109255
0.000109122
0.000108953
0.000108809
0.000108751
0.000108836
0.000109115
0.000109633
0.000110426
0.000111584
0.00011296
0.000114743
0.000116677
0.000118623
0.000120878
0.000123396
0.000126106
0.000128926
0.000131766
0.000134534
0.000137144
0.000139526
0.000141625
0.000143406
0.000144854
0.000145976
0.000146805
0.000147382
0.00014775
0.000147938
0.000147963
0.000147822
0.000147503
0.000146976
0.000146208
0.000145165
0.000143825
0.000142174
0.000140202
0.000137964
0.000135154
0.000132737
0.000129077
0.000125779
0.000122526
0.000117987
0.000117718
0.000109298
0.000119079
0.000100471
0.000128933
0.000233853
6.99679e-05
8.26769e-05
0.00014353
0.000144058
0.000112446
0.000105624
0.000108513
0.000108797
0.000107299
0.000106025
7.58168e-05
5.83249e-06
0.000118785
0.000320361
0.000581056
0.000615072
0.000566958
0.000511835
0.00045683
0.00040738
0.000364599
0.000327253
0.00029449
0.000265778
0.000240642
0.000218641
0.000199387
0.000182548
0.000167836
0.000155003
0.000143836
0.00013414
0.000125755
0.00011855
0.000112412
0.000107239
0.000102942
9.94418e-05
9.66617e-05
9.45318e-05
9.29841e-05
9.19533e-05
9.13761e-05
9.11906e-05
9.13366e-05
9.17554e-05
9.23896e-05
9.31833e-05
9.40829e-05
9.50376e-05
9.60006e-05
9.69309e-05
9.77942e-05
9.85649e-05
9.9227e-05
9.97751e-05
0.000100214
0.00010056
0.000100836
0.000101078
0.000101326
0.000101623
0.000102015
0.000102543
0.000103247
0.000104164
0.000105349
0.000106742
0.000108412
0.00011044
0.000112253
0.000114178
0.000116373
0.000118795
0.000121387
0.000124085
0.00012682
0.000129522
0.000132126
0.000134575
0.000136821
0.000138829
0.000140573
0.000142039
0.000143231
0.000144166
0.000144869
0.000145366
0.000145676
0.000145804
0.000145737
0.000145449
0.000144908
0.000144085
0.000142961
0.000141528
0.00013978
0.000137782
0.000135236
0.000133098
0.000129774
0.000126877
0.000124408
0.000120635
0.000121168
0.00011307
0.00012252
0.000106125
0.000134033
0.000219802
6.94719e-05
8.59536e-05
0.000143445
0.000146874
0.000118486
0.000107473
0.00011604
0.000114405
0.00011512
0.000114583
8.13491e-05
5.79182e-06
0.00011924
0.000321
0.000582498
0.000644
0.000583844
0.000517187
0.000456265
0.000404422
0.000360391
0.000322344
0.00028936
0.000260744
0.000235874
0.000214226
0.000195354
0.000178892
0.000164529
0.000152004
0.000141095
0.000131602
0.000123364
0.000116249
0.000110141
0.00010494
0.000100556
9.69099e-05
9.39276e-05
9.15414e-05
8.96875e-05
8.83055e-05
8.73385e-05
8.67317e-05
8.64329e-05
8.63926e-05
8.65636e-05
8.69018e-05
8.73659e-05
8.79182e-05
8.85254e-05
8.91588e-05
8.97953e-05
9.04176e-05
9.10151e-05
9.15832e-05
9.21245e-05
9.26479e-05
9.31691e-05
9.37093e-05
9.42948e-05
9.49551e-05
9.57214e-05
9.66241e-05
9.76927e-05
9.89577e-05
0.000100477
0.00010212
0.000104093
0.000106322
0.000107933
0.000109841
0.000111996
0.000114357
0.00011688
0.000119515
0.000122209
0.000124905
0.000127549
0.000130092
0.000132489
0.000134707
0.000136716
0.000138495
0.000140028
0.000141311
0.000142349
0.000143156
0.00014375
0.000144139
0.00014432
0.000144271
0.000143966
0.000143377
0.000142485
0.000141284
0.000139774
0.000138021
0.000135759
0.000133823
0.000130887
0.000128352
0.000126383
0.000123221
0.00012389
0.000116012
0.00012378
0.000108846
0.000131293
0.000190058
6.83326e-05
9.17205e-05
0.000153862
0.000147167
0.000131958
0.000110582
0.000127579
0.000120406
0.000124251
0.000123604
8.73477e-05
5.75468e-06
0.000119718
0.000321571
0.000584169
0.000679098
0.00060098
0.000521262
0.000454832
0.00040065
0.000355224
0.000316507
0.00028338
0.000254928
0.000230379
0.000209128
0.000190668
0.000174607
0.00016061
0.000148407
0.000137767
0.000128487
0.000120406
0.000113392
0.000107332
0.000102125
9.76838e-05
9.39284e-05
9.07891e-05
8.82009e-05
8.61039e-05
8.44425e-05
8.31651e-05
8.22233e-05
8.15718e-05
8.11686e-05
8.09752e-05
8.09562e-05
8.10803e-05
8.13201e-05
8.16524e-05
8.20587e-05
8.25247e-05
8.30402e-05
8.35987e-05
8.41973e-05
8.48363e-05
8.55196e-05
8.62547e-05
8.70534e-05
8.79311e-05
8.89066e-05
9.00011e-05
9.12366e-05
9.26329e-05
9.42483e-05
9.59816e-05
9.79697e-05
0.000100199
0.000102288
0.000103921
0.000105804
0.000107915
0.000110222
0.000112689
0.000115277
0.000117945
0.000120651
0.00012335
0.000125998
0.000128554
0.00013098
0.000133242
0.000135313
0.000137168
0.00013879
0.000140166
0.000141294
0.000142183
0.000142841
0.000143271
0.000143461
0.000143392
0.000143041
0.00014239
0.000141433
0.00014017
0.000138666
0.000136709
0.000134973
0.000132464
0.000130281
0.000128475
0.000125616
0.000125874
0.000118341
0.000123761
0.000108881
0.000124464
0.000171134
6.78662e-05
0.00010007
0.000165786
0.000155074
0.000162319
0.000117402
0.000145491
0.000127468
0.00013533
0.000133519
9.40475e-05
5.72191e-06
0.000120223
0.000322086
0.000585964
0.000716127
0.000614633
0.00052255
0.000451424
0.000395129
0.000348524
0.000309403
0.000276347
0.000248215
0.000224105
0.000203334
0.000185347
0.000169727
0.000156129
0.000144272
0.000133918
0.000124865
0.000116958
0.000110064
0.000104072
9.88836e-05
9.44136e-05
9.0585e-05
8.7331e-05
8.45898e-05
8.23054e-05
8.04266e-05
7.89068e-05
7.77026e-05
7.67748e-05
7.60875e-05
7.56089e-05
7.53111e-05
7.51707e-05
7.51688e-05
7.52912e-05
7.55285e-05
7.58744e-05
7.63252e-05
7.68785e-05
7.75325e-05
7.82856e-05
7.91364e-05
8.00851e-05
8.11344e-05
8.22904e-05
8.35626e-05
8.49635e-05
8.65074e-05
8.8217e-05
9.01156e-05
9.21204e-05
9.43952e-05
9.68682e-05
9.87261e-05
0.000100333
0.000102175
0.000104235
0.000106484
0.000108893
0.000111434
0.000114078
0.000116792
0.000119539
0.000122282
0.000124985
0.000127609
0.000130115
0.000132467
0.000134632
0.000136583
0.000138299
0.000139761
0.000140965
0.000141911
0.000142604
0.000143039
0.000143206
0.000143092
0.000142681
0.000141968
0.000140956
0.000139701
0.000138045
0.00013655
0.000134391
0.000132563
0.000130695
0.000127848
0.000127574
0.000120694
0.000123935
0.00010919
0.000120153
0.000178514
6.8842e-05
0.000112184
0.000172968
0.000193631
0.000221417
0.000131404
0.000166132
0.000133679
0.000148009
0.000143429
0.000101239
5.69433e-06
0.000120753
0.000322548
0.000587771
0.000747069
0.000620735
0.000519182
0.000444707
0.00038691
0.000339755
0.000300727
0.000268095
0.000240527
0.000217027
0.00019685
0.00017942
0.0001643
0.000151143
0.000139663
0.000129616
0.000120811
0.000113097
0.000106343
0.00010044
9.52957e-05
9.08265e-05
8.69584e-05
8.36283e-05
8.0778e-05
7.8355e-05
7.63124e-05
7.46077e-05
7.32021e-05
7.20611e-05
7.11541e-05
7.04544e-05
6.99407e-05
6.95965e-05
6.94111e-05
6.93795e-05
6.95013e-05
6.97786e-05
7.02139e-05
7.08083e-05
7.15603e-05
7.2465e-05
7.35146e-05
7.47008e-05
7.60162e-05
7.74576e-05
7.9026e-05
8.07269e-05
8.25664e-05
8.45961e-05
8.67014e-05
8.90367e-05
9.15634e-05
9.42788e-05
9.57246e-05
9.72833e-05
9.90676e-05
0.000101059
0.000103234
0.000105571
0.00010805
0.000110654
0.000113359
0.000116139
0.000118963
0.000121794
0.000124595
0.000127327
0.000129946
0.000132413
0.000134688
0.00013674
0.000138544
0.000140081
0.000141339
0.000142318
0.000143015
0.000143426
0.000143546
0.000143369
0.000142893
0.000142125
0.000141108
0.000139724
0.000138482
0.000136481
0.000135136
0.00013312
0.000130054
0.000129639
0.00012369
0.000125431
0.000113459
0.000123924
0.000225274
7.2746e-05
0.000128734
0.000173159
0.000317544
0.000278427
0.000146434
0.000176349
0.000139109
0.000160524
0.000152447
0.000108992
5.67278e-06
0.000121298
0.000322942
0.000589364
0.000758491
0.00061469
0.000508684
0.000433234
0.000375202
0.000328523
0.000290288
0.000258535
0.000231841
0.000209159
0.000189717
0.000172939
0.000158387
0.000145719
0.000134647
0.000124934
0.0001164
0.000108898
0.000102304
9.6514e-05
9.14372e-05
8.69957e-05
8.31192e-05
7.97476e-05
7.68267e-05
7.43076e-05
7.2147e-05
7.03063e-05
6.87504e-05
6.74486e-05
6.63745e-05
6.55063e-05
6.48286e-05
6.43323e-05
6.40159e-05
6.38848e-05
6.39485e-05
6.42177e-05
6.47005e-05
6.54e-05
6.6313e-05
6.74287e-05
6.87304e-05
7.0198e-05
7.18129e-05
7.35611e-05
7.54355e-05
7.74363e-05
7.95753e-05
8.18686e-05
8.42522e-05
8.686e-05
8.96303e-05
9.22139e-05
9.3416e-05
9.49001e-05
9.6607e-05
9.85036e-05
0.000100576
0.000102812
0.000105203
0.000107738
0.000110405
0.000113187
0.000116062
0.000118995
0.000121951
0.000124887
0.000127757
0.000130513
0.000133107
0.000135496
0.000137645
0.000139525
0.000141116
0.000142406
0.000143388
0.000144061
0.000144422
0.000144473
0.000144219
0.000143673
0.000142873
0.000141715
0.000140701
0.000138753
0.000137851
0.000135733
0.000132587
0.000132297
0.000127771
0.000128942
0.00012621
0.000143233
0.00028335
8.41865e-05
0.000145587
0.0001701
0.000309718
0.000214531
0.000143013
0.00016687
0.000142959
0.000167397
0.000160372
0.000117803
5.65815e-06
0.00012184
0.000323252
0.000590502
0.000736359
0.000592619
0.000489088
0.000415884
0.000359602
0.000314694
0.000278067
0.000247694
0.000222216
0.000200569
0.000182004
0.000165978
0.000152063
0.00013993
0.000129299
0.000119945
0.000111703
0.000104435
9.80205e-05
9.23626e-05
8.73762e-05
8.29871e-05
7.91297e-05
7.57471e-05
7.27894e-05
7.02109e-05
6.79717e-05
6.60364e-05
6.43731e-05
6.29543e-05
6.17574e-05
6.07656e-05
5.99703e-05
5.93718e-05
5.898e-05
5.88121e-05
5.88884e-05
5.92275e-05
5.98409e-05
6.07309e-05
6.18887e-05
6.32942e-05
6.49177e-05
6.67243e-05
6.86806e-05
7.07612e-05
7.29521e-05
7.52496e-05
7.76945e-05
8.01885e-05
8.28856e-05
8.57359e-05
8.87459e-05
9.08604e-05
9.19244e-05
9.32876e-05
9.4911e-05
9.67e-05
9.86431e-05
0.000100739
0.000102995
0.000105414
0.000107997
0.000110737
0.000113621
0.00011662
0.000119699
0.000122814
0.000125915
0.000128946
0.000131852
0.000134577
0.000137076
0.000139311
0.00014125
0.000142871
0.000144161
0.000145114
0.000145729
0.000146009
0.000145962
0.00014561
0.000144992
0.000144011
0.000143163
0.000141275
0.000140515
0.000138534
0.000135797
0.000135486
0.000133268
0.000134337
0.000152392
0.000198153
0.000261437
0.000108048
0.000157379
0.000176394
0.000276875
0.000142623
0.0001243
0.000144361
0.000144006
0.000169359
0.000170023
0.000128941
5.65125e-06
0.000122364
0.000323528
0.000592166
0.000679892
0.000554161
0.00046028
0.000392807
0.000340452
0.000298539
0.000264223
0.000235738
0.000211792
0.000191369
0.000173816
0.000158632
0.000145414
0.000133857
0.000123694
0.000114723
0.000106793
9.97747e-05
9.35579e-05
8.80506e-05
8.31739e-05
7.8859e-05
7.50447e-05
7.1678e-05
6.87127e-05
6.61064e-05