/*--------------------------------*- C++ -*----------------------------------*\
| =========                 |                                                 |
| \\      /  F ield         | OpenFOAM: The Open Source CFD Toolbox           |
|  \\    /   O peration     | Version:  v2106                                 |
|   \\  /    A nd           | Website:  www.openfoam.com                      |
|    \\/     M anipulation  |                                                 |
\*---------------------------------------------------------------------------*/
FoamFile
{
    version     2.0;
    format      ascii;
    arch        "LSB;label=32;scalar=64";
    class       volScalarField;
    location    "1.7";
    object      omega;
}
// * * * * * * * * * * * * * * * * * * * * * * * * * * * * * * * * * * * * * //

dimensions      [0 0 -1 0 0 0 0];

internalField   nonuniform List<scalar> 
29678
(
6.80598
1.50202
0.621142
0.353742
0.247211
0.197559
0.172276
0.158819
0.15176
0.148296
0.146775
0.146262
0.146263
0.146535
0.14698
0.147574
0.148335
0.149306
0.150559
0.152192
0.154192
0.156554
0.15944
0.163139
0.168251
0.176085
0.190196
0.204001
0.213199
0.217219
0.219127
0.2197
0.219113
0.217822
0.216142
0.214251
0.212283
0.210136
0.207827
0.205529
0.203209
0.200837
0.198678
0.19674
0.195035
0.193577
0.192286
0.191201
0.190406
0.189885
0.189593
0.189619
0.190012
0.190712
0.191719
0.193083
0.194981
0.197405
0.200277
0.20332
0.206054
0.208381
0.21065
0.221075
0.243748
0.263339
0.266657
0.306823
0.32537
0.336793
0.336328
0.377096
0.378594
0.37738
0.378897
0.372847
0.357453
0.330935
0.29712
0.28241
0.316558
0.262049
0.279955
0.280013
0.269021
0.262994
0.253298
0.271022
0.259947
0.273481
0.276389
0.292643
0.325465
0.390044
0.496389
0.675967
0.928104
1.5124
1.68402
1.57374
1.2305
1.07948
0.900336
0.801097
0.711609
0.686076
0.669786
0.625273
0.478831
0.309557
6.80514
1.50298
0.621359
0.353865
0.247487
0.19793
0.172414
0.158843
0.151861
0.148505
0.147099
0.146711
0.146855
0.147303
0.14797
0.148846
0.14997
0.151412
0.153176
0.155193
0.157528
0.160256
0.163466
0.167261
0.171859
0.17805
0.187612
0.19812
0.204701
0.208135
0.209861
0.210609
0.210375
0.20947
0.208197
0.2067
0.205085
0.203307
0.20142
0.199538
0.197678
0.195914
0.194229
0.192656
0.191243
0.190001
0.188948
0.188113
0.18757
0.187338
0.187411
0.18787
0.188742
0.18998
0.191593
0.193624
0.196156
0.198897
0.201784
0.204705
0.207366
0.209628
0.211352
0.212471
0.213783
0.212744
0.210753
0.208082
0.20579
0.203
0.199543
0.19534
0.193907
0.193593
0.193878
0.193716
0.19185
0.188949
0.188241
0.187983
0.191201
0.200006
0.203635
0.204439
0.207368
0.212738
0.21305
0.209212
0.210711
0.213182
0.217121
0.226446
0.2457
0.284618
0.359159
0.528373
0.788361
1.09011
1.47475
1.46315
1.25933
1.13456
0.937172
0.818602
0.672911
0.559809
0.437889
0.332633
0.240189
0.184323
6.80502
1.50425
0.62161
0.353987
0.247711
0.198084
0.172484
0.158914
0.151958
0.14863
0.14725
0.146888
0.147058
0.14753
0.14822
0.149119
0.15026
0.151708
0.153459
0.155447
0.157723
0.160356
0.16345
0.16717
0.171726
0.177182
0.182911
0.187888
0.192065
0.195404
0.197911
0.199702
0.200904
0.201367
0.201181
0.200535
0.199561
0.198318
0.196861
0.195279
0.193645
0.192022
0.190414
0.188893
0.187503
0.186283
0.185243
0.184387
0.183746
0.183351
0.183216
0.183365
0.183826
0.184596
0.185668
0.187048
0.188765
0.190822
0.19317
0.195554
0.197807
0.199821
0.201562
0.202829
0.202649
0.20103
0.199127
0.196769
0.193661
0.189733
0.185073
0.180258
0.175904
0.172454
0.170134
0.16899
0.168837
0.169863
0.17248
0.176148
0.180628
0.186387
0.190102
0.192502
0.195329
0.198212
0.200059
0.200432
0.202431
0.205355
0.209637
0.218039
0.231079
0.258499
0.307782
0.454374
0.711488
1.04734
1.23403
1.25525
1.3057
1.1273
0.935061
0.811629
0.670431
0.548801
0.41746
0.303477
0.222288
0.177737
6.80503
1.50523
0.621757
0.354072
0.247893
0.198192
0.172536
0.158978
0.152034
0.148714
0.14734
0.146983
0.147153
0.147622
0.148303
0.149184
0.150296
0.151696
0.153406
0.15534
0.157529
0.16002
0.162862
0.166106
0.169784
0.173952
0.178717
0.183761
0.188174
0.191628
0.19418
0.195997
0.197222
0.197856
0.197773
0.197175
0.196203
0.194949
0.193498
0.191935
0.190326
0.188731
0.187217
0.185823
0.184571
0.183485
0.182586
0.181887
0.181414
0.181192
0.181239
0.181576
0.182223
0.183185
0.18446
0.186049
0.187948
0.190121
0.192444
0.194661
0.196667
0.19832
0.199329
0.199451
0.198817
0.197559
0.195845
0.193577
0.190532
0.186904
0.183017
0.179103
0.175493
0.172519
0.170465
0.169593
0.169917
0.171427
0.174271
0.177854
0.182288
0.188051
0.19148
0.193665
0.196539
0.199336
0.200993
0.202026
0.205128
0.20962
0.216225
0.227412
0.242398
0.267805
0.30504
0.413896
0.644076
0.926314
1.14095
1.16109
1.2617
1.05859
0.894551
0.7788
0.655027
0.544849
0.429774
0.326442
0.244445
0.190065
6.80504
1.50586
0.621792
0.354135
0.248087
0.198299
0.172578
0.159033
0.152104
0.148798
0.147439
0.147093
0.14727
0.147741
0.148419
0.14929
0.150382
0.151743
0.153414
0.155304
0.157421
0.159793
0.16245
0.16541
0.168676
0.172202
0.175828
0.179276
0.182311
0.18487
0.186972
0.188659
0.189942
0.190638
0.190846
0.190671
0.190193
0.189474
0.188574
0.187553
0.186463
0.185356
0.184277
0.183263
0.182346
0.181558
0.180925
0.180471
0.180219
0.180191
0.1804
0.180859
0.181576
0.182548
0.183762
0.185199
0.186831
0.188607
0.190447
0.192233
0.193817
0.195032
0.195727
0.19593
0.195508
0.194447
0.192912
0.190935
0.188463
0.185575
0.182456
0.179312
0.176376
0.17391
0.172193
0.17143
0.171573
0.172518
0.174311
0.176924
0.18028
0.184101
0.187309
0.18996
0.192609
0.195194
0.197631
0.200175
0.204026
0.209096
0.216422
0.22782
0.243826
0.26902
0.302157
0.403715
0.628602
0.892894
1.04883
1.0643
1.19699
1.00997
0.849033
0.739555
0.631666
0.533652
0.427488
0.329104
0.248567
0.192653
6.80498
1.50613
0.621717
0.354236
0.248274
0.198389
0.17261
0.159073
0.152164
0.148885
0.147552
0.147226
0.147417
0.147896
0.148575
0.149443
0.150522
0.151855
0.15349
0.155347
0.157408
0.159688
0.1622
0.164949
0.167921
0.171076
0.174339
0.177581
0.18064
0.183388
0.185764
0.187752
0.189365
0.190618
0.19133
0.191517
0.191291
0.19074
0.189944
0.188977
0.187907
0.186797
0.185701
0.18467
0.183745
0.182963
0.182352
0.181932
0.181721
0.181735
0.181983
0.18247
0.183195
0.184149
0.185314
0.186665
0.188167
0.189766
0.191387
0.192932
0.19428
0.195299
0.195874
0.196079
0.195773
0.194939
0.193617
0.191846
0.189657
0.187147
0.184475
0.181814
0.179359
0.177339
0.175997
0.175487
0.175776
0.176794
0.178585
0.18117
0.184484
0.188105
0.191332
0.194124
0.196851
0.199591
0.202378
0.205523
0.209954
0.215665
0.223784
0.23549
0.251091
0.272622
0.300366
0.38732
0.594693
0.853998
1.01763
1.03159
1.14391
0.949943
0.787276
0.681083
0.587726
0.50785
0.416663
0.330474
0.254842
0.197441
6.80479
1.50602
0.621538
0.354375
0.248456
0.198461
0.172625
0.15909
0.152211
0.148974
0.14768
0.147384
0.147595
0.148086
0.148774
0.149645
0.150721
0.152037
0.153641
0.155478
0.157497
0.159709
0.162117
0.164715
0.167484
0.170382
0.173339
0.176252
0.179008
0.181523
0.183753
0.185681
0.18731
0.188603
0.1894
0.189772
0.189797
0.189543
0.189073
0.188449
0.187726
0.186958
0.186192
0.185468
0.184823
0.184292
0.183905
0.183686
0.183657
0.183832
0.184221
0.184826
0.185643
0.186657
0.187845
0.189176
0.190607
0.192079
0.193521
0.194842
0.195941
0.196717
0.197172
0.197296
0.197002
0.196256
0.195078
0.1935
0.191574
0.189396
0.187091
0.184804
0.182702
0.18097
0.179778
0.179219
0.179273
0.179903
0.181143
0.183019
0.185474
0.188266
0.191021
0.19364
0.196282
0.19909
0.202194
0.205909
0.210834
0.2172
0.225913
0.238103
0.253989
0.275136
0.30095
0.379257
0.567768
0.816822
0.98161
0.993695
1.08516
0.884659
0.717083
0.611131
0.532126
0.472519
0.39779
0.324334
0.255347
0.199161
6.80446
1.5055
0.621263
0.354538
0.248639
0.198513
0.172611
0.159077
0.152243
0.149066
0.147825
0.147569
0.147806
0.148317
0.149021
0.149904
0.150986
0.152298
0.153877
0.155704
0.1577
0.159868
0.162207
0.164709
0.167352
0.170098
0.172893
0.175664
0.178335
0.180841
0.183137
0.185197
0.187009
0.18857
0.189751
0.190497
0.190878
0.190959
0.1908
0.190461
0.190001
0.189471
0.188921
0.188393
0.187925
0.187554
0.187308
0.187214
0.187291
0.187553
0.188006
0.188648
0.18947
0.190455
0.191575
0.192795
0.19407
0.195344
0.196552
0.19762
0.198468
0.199031
0.199407
0.199523
0.199285
0.198659
0.197643
0.196265
0.194583
0.192678
0.190655
0.188641
0.186777
0.185221
0.184114
0.183535
0.183505
0.184029
0.185138
0.186837
0.189059
0.19163
0.194264
0.196891
0.199626
0.202621
0.206034
0.210131
0.215378
0.222232
0.231147
0.243147
0.257571
0.277013
0.301656
0.369503
0.543539
0.782368
0.949218
0.961024
1.03292
0.814233
0.641728
0.532661
0.468982
0.429106
0.37304
0.313892
0.253643
0.200189
6.80394
1.50457
0.620907
0.35472
0.24882
0.198536
0.172553
0.159029
0.152261
0.149165
0.147993
0.147786
0.148058
0.148597
0.149325
0.15023
0.151327
0.152644
0.154213
0.156037
0.158028
0.160179
0.162488
0.164943
0.167523
0.170195
0.172914
0.175625
0.178272
0.1808
0.183168
0.185347
0.187319
0.189075
0.190563
0.191647
0.192376
0.192805
0.192989
0.192985
0.192844
0.192619
0.192354
0.192091
0.191867
0.191715
0.191666
0.191743
0.191966
0.192345
0.192886
0.193584
0.194427
0.195397
0.196464
0.197591
0.198736
0.199845
0.20086
0.201719
0.20236
0.202789
0.203091
0.203147
0.202885
0.202276
0.201317
0.200032
0.198469
0.196698
0.194824
0.192963
0.19124
0.189781
0.188696
0.188056
0.187898
0.188245
0.189115
0.190492
0.192313
0.194467
0.196771
0.199198
0.201853
0.204881
0.20845
0.212766
0.218209
0.225402
0.234272
0.24587
0.259144
0.277776
0.301511
0.35934
0.517669
0.74322
0.911682
0.924958
0.988834
0.746476
0.561893
0.456908
0.411898
0.386454
0.347202
0.301052
0.249713
0.20021
6.80321
1.50323
0.620482
0.354918
0.248988
0.19851
0.172439
0.158943
0.15227
0.149279
0.14819
0.148043
0.148359
0.148933
0.149693
0.150626
0.151747
0.153081
0.154657
0.156493
0.158503
0.160667
0.16298
0.16543
0.167998
0.170655
0.173364
0.176082
0.178761
0.181359
0.183836
0.186164
0.188321
0.190295
0.19208
0.193553
0.194678
0.195503
0.196075
0.196446
0.196664
0.196777
0.196828
0.196856
0.196898
0.196986
0.197147
0.197404
0.197774
0.198267
0.198884
0.19962
0.200463
0.201389
0.202372
0.203376
0.204358
0.205274
0.206072
0.206699
0.207108
0.207417
0.2076
0.207561
0.207242
0.206616
0.205681
0.204456
0.202981
0.201323
0.199566
0.197808
0.196157
0.19472
0.193596
0.192854
0.192544
0.1927
0.193337
0.194433
0.195932
0.197767
0.199823
0.202099
0.204688
0.207724
0.211366
0.215793
0.221267
0.228496
0.236651
0.247671
0.259698
0.277295
0.300314
0.350594
0.497597
0.708843
0.871392
0.888042
0.965682
0.71004
0.501447
0.402925
0.370242
0.35342
0.324335
0.28817
0.244672
0.199619
6.80223
1.50145
0.620004
0.355129
0.24912
0.198415
0.172262
0.158826
0.15228
0.149414
0.148424
0.148347
0.148716
0.149332
0.15013
0.151099
0.152255
0.153622
0.155228
0.157095
0.159147
0.161351
0.1637
0.166184
0.168784
0.171476
0.174229
0.177006
0.179768
0.182478
0.185102
0.18761
0.18998
0.192197
0.194249
0.196125
0.197693
0.198962
0.199973
0.200768
0.201393
0.201891
0.202301
0.202661
0.203005
0.203363
0.203758
0.204213
0.204742
0.205351
0.206042
0.206809
0.207637
0.208506
0.209388
0.210252
0.21106
0.211771
0.212344
0.212733
0.212935
0.213127
0.21319
0.213046
0.212642
0.211955
0.210987
0.209754
0.208293
0.206664
0.204939
0.203205
0.201553
0.200076
0.198862
0.197981
0.197494
0.197441
0.197836
0.198658
0.199864
0.20141
0.203233
0.205346
0.207838
0.210828
0.214456
0.218901
0.224207
0.231017
0.238488
0.248952
0.259904
0.27635
0.298777
0.343856
0.48327
0.684252
0.839111
0.86
0.960418
0.700258
0.469084
0.373881
0.344399
0.33203
0.307217
0.277026
0.239364
0.198631
6.80099
1.49922
0.61948
0.355343
0.249193
0.198241
0.172026
0.158688
0.1523
0.149582
0.148704
0.148707
0.149135
0.1498
0.150643
0.151659
0.152866
0.154286
0.155945
0.157864
0.159982
0.162252
0.164669
0.167221
0.169894
0.172665
0.175509
0.178393
0.181285
0.184151
0.18696
0.189684
0.1923
0.194789
0.197139
0.199342
0.201388
0.203161
0.204669
0.205949
0.207039
0.207975
0.208796
0.209535
0.210221
0.210881
0.211538
0.212209
0.212907
0.213636
0.214399
0.215186
0.215987
0.216782
0.217546
0.218252
0.218867
0.219358
0.219686
0.219836
0.219897
0.219918
0.21982
0.219529
0.218996
0.2182
0.217142
0.215845
0.214342
0.212684
0.210932
0.20916
0.207449
0.205881
0.204533
0.203477
0.202777
0.202481
0.202605
0.203136
0.204044
0.205305
0.206889
0.20882
0.211177
0.214065
0.217598
0.221941
0.226853
0.233207
0.240196
0.250158
0.260314
0.27568
0.297783
0.340172
0.476128
0.671089
0.819247
0.844089
0.972932
0.70994
0.459493
0.360854
0.326703
0.316434
0.295702
0.268569
0.23453
0.197554
6.79946
1.49656
0.618912
0.355532
0.249185
0.197985
0.171744
0.158541
0.152338
0.149789
0.149039
0.149131
0.149623
0.150345
0.151246
0.152324
0.153598
0.155089
0.156823
0.158822
0.16103
0.163394
0.165909
0.168565
0.171349
0.174242
0.177221
0.180258
0.183325
0.186391
0.189428
0.192409
0.195309
0.198109
0.200794
0.203351
0.205775
0.208062
0.210153
0.211987
0.213611
0.215054
0.216345
0.217514
0.218587
0.219587
0.220532
0.221439
0.222317
0.223171
0.224001
0.224803
0.225565
0.226272
0.226902
0.227434
0.227838
0.228088
0.228158
0.228079
0.227958
0.227798
0.227521
0.227057
0.226359
0.225409
0.224214
0.222796
0.22119
0.219439
0.217595
0.215722
0.213892
0.212179
0.210652
0.209381
0.208432
0.207854
0.207674
0.207888
0.208483
0.209451
0.210787
0.212515
0.214705
0.217447
0.22082
0.224945
0.229468
0.235467
0.242103
0.251565
0.261205
0.275673
0.297869
0.339528
0.475446
0.66935
0.812741
0.839516
1.01308
0.737361
0.463272
0.357546
0.31546
0.305253
0.285904
0.262229
0.230185
0.196551
6.79762
1.49347
0.618313
0.355657
0.249077
0.197659
0.17143
0.158391
0.152402
0.150047
0.14944
0.149628
0.150194
0.150983
0.151954
0.153109
0.154467
0.156051
0.157885
0.159991
0.162314
0.164801
0.167447
0.170243
0.173177
0.176234
0.179392
0.182629
0.185918
0.189232
0.192545
0.19583
0.199061
0.202219
0.205285
0.208244
0.211086
0.213804
0.216392
0.218849
0.221105
0.223128
0.224958
0.226618
0.228127
0.229504
0.230765
0.231926
0.232996
0.23398
0.23488
0.235693
0.23641
0.237019
0.237505
0.237849
0.238029
0.23802
0.237854
0.2375
0.237181
0.236821
0.236339
0.235668
0.234766
0.233619
0.232235
0.23064
0.228869
0.226962
0.224965
0.222933
0.220926
0.219011
0.217257
0.215729
0.214492
0.213597
0.213077
0.212944
0.2132
0.213854
0.214918
0.216418
0.218412
0.220974
0.224156
0.228046
0.232296
0.238037
0.244411
0.253351
0.262714
0.276464
0.299234
0.340941
0.478499
0.676766
0.819277
0.845455
1.07273
0.780633
0.480617
0.364314
0.310286
0.298359
0.27718
0.256446
0.226274
0.195758
6.79543
1.49001
0.617732
0.355672
0.248848
0.197274
0.171088
0.158235
0.152501
0.150373
0.149922
0.150214
0.150862
0.15173
0.152784
0.154032
0.155494
0.157192
0.159153
0.161397
0.163865
0.166505
0.169315
0.172288
0.175413
0.178676
0.182061
0.185546
0.189109
0.192724
0.196367
0.20001
0.20363
0.207202
0.210708
0.214129
0.217449
0.220657
0.223739
0.226687
0.229489
0.232133
0.234602
0.236824
0.238817
0.240606
0.242209
0.243641
0.244914
0.246034
0.247005
0.247826
0.248493
0.248998
0.249329
0.249475
0.249418
0.249171
0.248743
0.248176
0.24762
0.247023
0.246308
0.245402
0.244261
0.242874
0.241253
0.239425
0.237427
0.235298
0.233083
0.230831
0.228593
0.226425
0.224392
0.22256
0.220993
0.219743
0.218849
0.218335
0.218219
0.218525
0.21928
0.220519
0.22229
0.224654
0.227642
0.231347
0.235442
0.241038
0.247251
0.255696
0.264868
0.278011
0.301557
0.343122
0.481928
0.687971
0.832713
0.858238
1.149
0.841531
0.512691
0.378974
0.310555
0.293574
0.269906
0.25029
0.222589
0.195016
6.79284
1.48628
0.617246
0.355553
0.248487
0.196828
0.170695
0.158073
0.152661
0.150791
0.150503
0.150904
0.151642
0.1526
0.153754
0.155113
0.156699
0.158538
0.160655
0.163072
0.165712
0.168539
0.171549
0.174738
0.178096
0.181614
0.185275
0.189063
0.192956
0.196932
0.200967
0.205034
0.209109
0.213168
0.217186
0.221144
0.225019
0.228792
0.232442
0.235946
0.239282
0.242427
0.245362
0.248072
0.250547
0.252783
0.254768
0.256491
0.257971
0.259221
0.260248
0.261055
0.261639
0.261997
0.26212
0.262002
0.26164
0.261105
0.260328
0.259532
0.258789
0.25803
0.257151
0.256067
0.254728
0.253124
0.251263
0.249175
0.246902
0.244492
0.241994
0.239457
0.236931
0.234461
0.232102
0.229918
0.227975
0.226328
0.225023
0.224092
0.223568
0.223486
0.223888
0.224818
0.226329
0.22848
0.231289
0.234862
0.238895
0.244433
0.250543
0.25859
0.267499
0.28026
0.30447
0.345506
0.483999
0.698807
0.848724
0.875887
1.24394
0.92486
0.56343
0.397934
0.314668
0.287614
0.262699
0.243439
0.218539
0.193812
6.78984
1.48237
0.616929
0.355307
0.248003
0.196288
0.170224
0.157934
0.152922
0.151324
0.151199
0.151714
0.152553
0.153615
0.154885
0.156376
0.158111
0.160118
0.162425
0.165047
0.167893
0.170941
0.174191
0.177638
0.181276
0.185099
0.189093
0.193243
0.197531
0.201936
0.206437
0.211006
0.215619
0.220249
0.224872
0.22946
0.233986
0.238417
0.242721
0.246858
0.25079
0.254483
0.257909
0.261048
0.263888
0.266424
0.268655
0.270583
0.272212
0.273546
0.274588
0.275342
0.275805
0.275979
0.275867
0.275465
0.274843
0.273976
0.272858
0.271831
0.270872
0.269897
0.268804
0.26751
0.265969
0.264164
0.262099
0.259786
0.257254
0.254548
0.251726
0.248849
0.245972
0.243146
0.240418
0.23784
0.235476
0.233389
0.23163
0.230245
0.229274
0.228763
0.228763
0.22933
0.230528
0.232425
0.235062
0.238529
0.242557
0.248033
0.253996
0.261865
0.270514
0.283369
0.30793
0.348123
0.484661
0.708354
0.868823
0.900045
1.36374
1.03258
0.635654
0.416246
0.320616
0.278767
0.256548
0.236374
0.214102
0.1916
6.78641
1.47831
0.616813
0.354979
0.247429
0.195588
0.169678
0.15788
0.153316
0.151988
0.152026
0.152661
0.153613
0.154797
0.156203
0.157848
0.15976
0.161967
0.164501
0.16736
0.170447
0.173755
0.177285
0.181038
0.185008
0.189192
0.193581
0.198161
0.202918
0.207834
0.212886
0.21805
0.223301
0.22861
0.23395
0.239285
0.244578
0.249779
0.254834
0.259685
0.264279
0.26857
0.272525
0.276124
0.279353
0.282207
0.284685
0.286789
0.288521
0.289886
0.290888
0.291535
0.291832
0.291787
0.291407
0.290718
0.289793
0.288555
0.287164
0.285864
0.284619
0.283336
0.281918
0.280289
0.278407
0.276264
0.273868
0.271238
0.268402
0.265392
0.262245
0.259007
0.255739
0.252502
0.249353
0.246342
0.243523
0.240956
0.238703
0.236822
0.235363
0.23438
0.233932
0.234084
0.234907
0.236486
0.238894
0.242247
0.246267
0.251655
0.257405
0.265418
0.274001
0.287516
0.312135
0.351271
0.484726
0.717319
0.896145
0.931317
1.50549
1.15512
0.717651
0.433172
0.331131
0.27336
0.253981
0.23137
0.211146
0.189752
6.78258
1.47413
0.616896
0.35464
0.246782
0.194694
0.169103
0.157967
0.153866
0.1528
0.153002
0.153767
0.154847
0.15617
0.157734
0.15956
0.161678
0.164122
0.166924
0.170051
0.173417
0.177026
0.180884
0.184994
0.189353
0.193962
0.198816
0.203904
0.209216
0.214735
0.220442
0.226314
0.232325
0.238446
0.244642
0.250868
0.257065
0.263159
0.26907
0.274721
0.280045
0.284993
0.28953
0.293635
0.297294
0.3005
0.303248
0.305538
0.307371
0.308752
0.309685
0.310181
0.31025
0.309905
0.309158
0.308131
0.306778
0.305107
0.303436
0.301851
0.300289
0.298652
0.296841
0.294786
0.292452
0.289839
0.286967
0.283869
0.280581
0.27714
0.27358
0.269934
0.266241
0.262552
0.258929
0.255433
0.252119
0.249041
0.246262
0.243847
0.24186
0.240364
0.239423
0.239108
0.2395
0.24069
0.242776
0.2459
0.249846
0.255194
0.260743
0.269218
0.278038
0.292628
0.317234
0.355454
0.485832
0.727406
0.931376
0.966197
1.65936
1.28099
0.789047
0.455863
0.34612
0.273489
0.256767
0.229342
0.210525
0.189226
6.77837
1.46992
0.617188
0.354364
0.245963
0.193654
0.168616
0.158238
0.154592
0.15378
0.154149
0.155056
0.156279
0.157763
0.15951
0.161546
0.163907
0.166627
0.169742
0.173165
0.17685
0.180806
0.185042
0.189565
0.194377
0.199482
0.20488
0.210566
0.216531
0.222764
0.229249
0.235967
0.24289
0.249988
0.257213
0.264498
0.271754
0.278874
0.285752
0.292298
0.298441
0.30413
0.30933
0.314014
0.318165
0.321769
0.324817
0.327304
0.329229
0.330596
0.331413
0.331693
0.331455
0.330719
0.329549
0.32806
0.326168
0.323927
0.321933
0.320077
0.318178
0.316141
0.313872
0.311306
0.308419
0.305219
0.301739
0.298024
0.294123
0.290085
0.285953
0.281767
0.277555
0.273347
0.269191
0.265148
0.261279
0.257645
0.254304
0.251323
0.248774
0.246726
0.245253
0.244428
0.244336
0.245072
0.246743
0.249503
0.253199
0.258548
0.263982
0.273133
0.282551
0.298368
0.323251
0.361175
0.489829
0.741991
0.976144
1.00363
1.8227
1.41331
0.863107
0.492861
0.365409
0.280322
0.263372
0.229757
0.212383
0.190126
6.7738
1.46582
0.617732
0.354282
0.244855
0.192498
0.168317
0.158723
0.155513
0.154948
0.155489
0.156552
0.157939
0.159607
0.161565
0.163846
0.166487
0.169531
0.172991
0.176748
0.180796
0.185147
0.189816
0.194813
0.200148
0.205829
0.211862
0.218247
0.224983
0.232063
0.239478
0.247212
0.255238
0.263515
0.271974
0.280511
0.288994
0.297284
0.305263
0.312834
0.319928
0.326488
0.332471
0.337838
0.342561
0.346616
0.349988
0.352666
0.354649
0.355943
0.356561
0.356525
0.355865
0.35461
0.352953
0.350838
0.348282
0.345475
0.343041
0.340862
0.338614
0.336138
0.333345
0.330178
0.326627
0.322714
0.318487
0.314005
0.309331
0.304526
0.299648
0.294747
0.28986
0.285009
0.280224
0.275551
0.271053
0.266794
0.262835
0.259245
0.256095
0.25346
0.251417
0.250044
0.249425
0.249649
0.250825
0.253111
0.256412
0.261639
0.266979
0.276902
0.287184
0.304273
0.329977
0.368644
0.497336
0.76355
1.03546
1.05424
1.98626
1.56579
0.982096
0.55553
0.393215
0.295336
0.271821
0.233015
0.216082
0.192014
6.76889
1.46207
0.618569
0.354526
0.243371
0.191226
0.168259
0.159445
0.156647
0.156326
0.15705
0.158285
0.159858
0.161736
0.163938
0.166501
0.169468
0.172889
0.176713
0.180845
0.185301
0.190099
0.195259
0.200798
0.206734
0.213081
0.219852
0.227058
0.234703
0.242794
0.251328
0.260292
0.269659
0.279363
0.289293
0.299291
0.309187
0.318831
0.328101
0.336901
0.345148
0.35277
0.359698
0.365876
0.371254
0.375798
0.379487
0.382311
0.384271
0.385381
0.385665
0.385159
0.383908
0.382014
0.379674
0.376779
0.373399
0.370003
0.36706
0.364424
0.361863
0.358948
0.35559
0.351746
0.347421
0.34266
0.337532
0.332116
0.326494
0.320743
0.314937
0.309135
0.303388
0.297728
0.292174
0.286758
0.281531
0.276556
0.271899
0.267629
0.26382
0.260548
0.257891
0.255928
0.254739
0.254405
0.255025
0.256764
0.259586
0.264517
0.269798
0.280099
0.291281
0.309837
0.336842
0.377408
0.506557
0.787633
1.11574
1.13099
2.11572
1.72786
1.14298
0.67669
0.438405
0.319471
0.281816
0.237929
0.220021
0.194091
6.76358
1.45884
0.619621
0.354558
0.241701
0.190146
0.168502
0.160426
0.158018
0.15794
0.158858
0.160284
0.162068
0.164188
0.16667
0.169558
0.172903
0.176745
0.180952
0.185499
0.19041
0.195708
0.201422
0.207577
0.2142
0.221315
0.228946
0.237116
0.245845
0.25515
0.265042
0.275511
0.286511
0.29793
0.30959
0.32129
0.332848
0.34412
0.354981
0.365319
0.375016
0.383959
0.392043
0.399171
0.405275
0.41031
0.414253
0.4171
0.418868
0.41959
0.419314
0.418102
0.416019
0.413346
0.410057
0.406174
0.401773
0.397708
0.394199
0.391058
0.388082
0.38483
0.380921
0.376355
0.371163
0.36542
0.359226
0.352691
0.345924
0.339026
0.332089
0.325188
0.318385
0.311724
0.30523
0.298924
0.292843
0.287041
0.281583
0.276541
0.27199
0.268009
0.264674
0.262064
0.260254
0.259319
0.259343
0.260488
0.262777
0.267255
0.272425
0.282677
0.294375
0.314255
0.342675
0.386183
0.515572
0.80871
1.20516
1.21781
2.21621
1.88181
1.32095
0.84393
0.493602
0.348955
0.291294
0.24311
0.222283
0.195366
6.75757
1.45593
0.620714
0.353972
0.23991
0.18941
0.169067
0.161681
0.159648
0.159816
0.160943
0.162582
0.164604
0.167
0.169803
0.173066
0.176848
0.181118
0.185741
0.190744
0.196156
0.202011
0.208346
0.215199
0.222607
0.230609
0.239246
0.248561
0.258592
0.269375
0.280935
0.293252
0.30623
0.31968
0.333373
0.347101
0.360703
0.374037
0.386964
0.399309
0.410904
0.421595
0.431117
0.439388
0.446337
0.451876
0.455948
0.458547
0.45974
0.459658
0.458417
0.456061
0.452793
0.448983
0.444456
0.439311
0.433649
0.428816
0.424676
0.420988
0.417504
0.413948
0.409599
0.404335
0.398224
0.391383
0.38396
0.376108
0.367977
0.359703
0.351405
0.34318
0.335104
0.327233
0.319603
0.312233
0.305148
0.298388
0.292012
0.286089
0.280696
0.275911
0.271815
0.268483
0.26599
0.264404
0.263799
0.264316
0.26602
0.269908
0.274813
0.284728
0.296402
0.317116
0.346007
0.39303
0.520764
0.820615
1.27999
1.29234
2.31813
1.99638
1.5615
0.982947
0.540512
0.369171
0.294977
0.245511
0.220381
0.194441
6.75068
1.4537
0.621828
0.352493
0.237969
0.189081
0.169972
0.163228
0.161558
0.161981
0.163335
0.165213
0.167505
0.170215
0.173386
0.177079
0.181346
0.186033
0.191106
0.196601
0.202561
0.209032
0.216062
0.223705
0.232015
0.241052
0.250881
0.261571
0.273187
0.285791
0.29941
0.313981
0.329321
0.345174
0.361315
0.37758
0.393846
0.409958
0.425784
0.440917
0.45555
0.469478
0.482325
0.493634
0.502967
0.509954
0.514269
0.515727
0.514486
0.511119
0.506396
0.500949
0.495419
0.489726
0.483508
0.476669
0.469647
0.463785
0.458828
0.454477
0.450415
0.446338
0.441775
0.435934
0.428934
0.420937
0.412149
0.402786
0.393059
0.383154
0.37323
0.36342
0.353823
0.34451
0.335527
0.326897
0.318636
0.31077
0.303344
0.296419
0.290068
0.284375
0.279419
0.275277
0.272023
0.269723
0.268445
0.268301
0.269366
0.272539
0.276991
0.286273
0.297574
0.318374
0.346705
0.395785
0.51783
0.818111
1.31458
1.32883
2.41917
2.02286
1.73712
1.05964
0.560765
0.370573
0.286173
0.242029
0.211528
0.189731
6.74281
1.45251
0.622369
0.350203
0.236104
0.189198
0.171229
0.165085
0.163772
0.16446
0.166063
0.16821
0.170812
0.173881
0.177471
0.181652
0.186382
0.191501
0.197048
0.203072
0.209629
0.216782
0.224594
0.233138
0.242497
0.252757
0.264016
0.276379
0.289951
0.304815
0.320966
0.338246
0.356388
0.375151
0.394397
0.414052
0.434092
0.454486
0.476323
0.499639
0.524068
0.548931
0.57313
0.595203
0.613662
0.627064
0.633908
0.632815
0.623458
0.607474
0.588209
0.569258
0.554046
0.541311
0.530123
0.519755
0.510518
0.503141
0.49706
0.49181
0.487029
0.482329
0.47736
0.471263
0.463526
0.454412
0.444191
0.433161
0.421611
0.409805
0.397966
0.386275
0.374872
0.363851
0.353271
0.343161
0.33353
0.32439
0.315767
0.307707
0.300277
0.293557
0.287632
0.282581
0.278474
0.27538
0.273365
0.272516
0.272888
0.275243
0.279071
0.287422
0.298146
0.318169
0.346013
0.394967
0.506616
0.800184
1.29488
1.3105
2.46267
1.96635
1.59918
1.00284
0.521895
0.354749
0.271177
0.233636
0.20092
0.182725
6.73396
1.45256
0.621384
0.347609
0.234759
0.189768
0.172847
0.167271
0.166312
0.16728
0.169156
0.171606
0.174557
0.178036
0.182109
0.186813
0.191947
0.197503
0.203549
0.210142
0.217356
0.225268
0.233969
0.24356
0.254154
0.26588
0.278878
0.293304
0.309309
0.32697
0.346181
0.366679
0.388218
0.410707
0.434241
0.458911
0.48731
0.52187
0.564546
0.615988
0.675017
0.738872
0.803482
0.864223
0.916695
0.956586
0.979473
0.979958
0.953651
0.900929
0.829332
0.755168
0.694336
0.647701
0.613059
0.586839
0.567201
0.552846
0.542248
0.534265
0.527949
0.522329
0.516609
0.510317
0.502101
0.492035
0.48042
0.467643
0.454091
0.440127
0.426068
0.412172
0.398638
0.385601
0.373144
0.361302
0.350081
0.339479
0.329497
0.320159
0.311518
0.303648
0.296634
0.290559
0.285496
0.281514
0.278679
0.27706
0.276687
0.278148
0.281212
0.288417
0.298433
0.317033
0.34432
0.392697
0.495055
0.774118
1.23013
1.24672
2.44537
1.78717
1.31614
0.80347
0.449809
0.333462
0.259797
0.225065
0.19354
0.177967
6.72425
1.45394
0.619002
0.34478
0.233959
0.190785
0.174837
0.169802
0.169201
0.170466
0.172644
0.175432
0.178777
0.182721
0.187328
0.192467
0.19801
0.204026
0.210588
0.217789
0.225733
0.234508
0.244237
0.255059
0.26713
0.280632
0.29577
0.312763
0.331794
0.352853
0.375701
0.400088
0.425981
0.453619
0.484737
0.525357
0.582921
0.66648
0.782537
0.929934
1.09947
1.27697
1.44853
1.60273
1.73004
1.82505
1.88337
1.89687
1.8555
1.7531
1.5936
1.40967
1.22327
1.05591
0.918677
0.812042
0.731354
0.672544
0.631497
0.603579
0.584739
0.571688
0.561873
0.553525
0.544845
0.533954
0.521089
0.506597
0.490944
0.474611
0.458037
0.441596
0.425575
0.410174
0.395515
0.381651
0.368587
0.356305
0.344783
0.334033
0.324043
0.314883
0.306643
0.299413
0.293273
0.28829
0.284531
0.282057
0.28088
0.2814
0.283598
0.289552
0.298763
0.315712
0.34228
0.389493
0.486475
0.748152
1.15119
1.17197
2.42708
1.59559
1.05421
0.646444
0.410141
0.318718
0.254505
0.219809
0.190231
0.176677
6.71377
1.45698
0.615169
0.341713
0.233714
0.192242
0.177205
0.172696
0.172458
0.174042
0.176553
0.179719
0.183507
0.187967
0.193054
0.198546
0.204499
0.211002
0.218147
0.226032
0.234774
0.244537
0.255477
0.267765
0.28162
0.297297
0.315087
0.335282
0.358014
0.383115
0.410328
0.439673
0.471595
0.510843
0.568683
0.663727
0.821584
1.0636
1.39057
1.77579
2.17494
2.54543
2.8632
3.11781
3.31305
3.44763
3.52763
3.55015
3.50088
3.36569
3.14376
2.86087
2.52967
2.18526
1.86404
1.58443
1.34971
1.1537
0.991472
0.861502
0.761735
0.690954
0.645862
0.617667
0.598701
0.582921
0.567074
0.550392
0.532573
0.513737
0.494406
0.475089
0.456205
0.438055
0.420826
0.404606
0.389431
0.375229
0.361958
0.349588
0.33809
0.327497
0.317889
0.309362
0.302007
0.295894
0.29109
0.287653
0.285596
0.285144
0.286412
0.291101
0.299429
0.314838
0.34077
0.386785
0.481916
0.726096
1.08305
1.1137
2.43648
1.4683
0.912534
0.578045
0.4004
0.312945
0.253092
0.217169
0.189475
0.17773
6.70259
1.45936
0.611592
0.339262
0.234024
0.194135
0.179957
0.175963
0.1761
0.178026
0.180903
0.18449
0.188768
0.193732
0.199129
0.204969
0.211353
0.218384
0.226175
0.234851
0.24456
0.25547
0.267797
0.28185
0.297875
0.316235
0.337329
0.361466
0.388613
0.418523
0.451241
0.48755
0.535844
0.615658
0.764422
1.03579
1.47329
2.07456
2.77604
3.49121
4.14514
4.69564
5.12526
5.43474
5.64156
5.75815
5.81093
5.81162
5.73892
5.57163
5.30766
4.94585
4.5029
4.01478
3.52432
3.06499
2.65342
2.28361
1.94324
1.63397
1.36253
1.13439
0.95422
0.822768
0.732349
0.675227
0.636953
0.607458
0.582166
0.558646
0.535854
0.513273
0.491125
0.469815
0.449628
0.430677
0.413019
0.396594
0.381324
0.367131
0.353949
0.341768
0.330641
0.320663
0.311933
0.304538
0.298546
0.294016
0.290978
0.289517
0.289812
0.293273
0.300657
0.314822
0.340385
0.386159
0.481841
0.712281
1.03534
1.07437
2.4892
1.42009
0.857578
0.553308
0.397072
0.311763
0.254157
0.216792