/*--------------------------------*- C++ -*----------------------------------*\
| =========                 |                                                 |
| \\      /  F ield         | OpenFOAM: The Open Source CFD Toolbox           |
|  \\    /   O peration     | Version:  v2106                                 |
|   \\  /    A nd           | Website:  www.openfoam.com                      |
|    \\/     M anipulation  |                                                 |
\*---------------------------------------------------------------------------*/
FoamFile
{
    version     2.0;
    format      ascii;
    arch        "LSB;label=32;scalar=64";
    class       volScalarField;
    location    "1.7";
    object      p;
}
// * * * * * * * * * * * * * * * * * * * * * * * * * * * * * * * * * * * * * //

dimensions      [1 -1 -2 0 0 0 0];

internalField   nonuniform List<scalar> 
29678
(
14641.4
14494.2
14347.1
14199.9
14052.7
13905.6
13758.4
13611.2
13464
13316.8
13169.5
13022.3
12875.1
12727.8
12580.5
12433.2
12285.9
12138.6
11991.2
11843.7
11696
11548.1
11399.6
11249.7
11097.3
10940.5
10775.2
10602.1
10443.4
10289.6
10137.6
9986.48
9835.84
9685.51
9535.38
9385.39
9235.5
9085.69
8935.95
8786.3
8636.74
8487.27
8337.91
8188.64
8039.45
7890.37
7741.4
7592.51
7443.73
7295.06
7146.49
6998.04
6849.69
6701.45
6553.33
6405.31
6257.38
6109.55
5961.75
5813.93
5665.92
5517.4
5367.5
5215.49
5057.47
4901.48
4750.53
4601.5
4450.01
4299.45
4150.21
4001.2
3851.89
3702.7
3553.61
3404.88
3256.38
3108.12
2959.63
2811.28
2662.36
2513.69
2363.06
2212.24
2063.33
1914.41
1766.13
1616.13
1467.02
1318.75
1169.2
1020.1
872.108
724.005
575.848
428.496
281.505
135.364
29.6046
0.081031
-0.226163
-0.316729
-0.527689
-0.681743
-0.868198
-1.04298
-1.22455
-1.404
-1.58608
-1.76789
14641.3
14494.2
14347
14199.8
14052.6
13905.3
13758.1
13610.8
13463.5
13316.2
13168.8
13021.4
12874
12726.6
12579
12431.5
12283.8
12136.1
11988.2
11840.2
11691.9
11543.2
11394.1
11244.4
11093.7
10940.7
10781.3
10610.2
10450.1
10295
10142.1
9990.23
9839.02
9688.2
9537.66
9387.31
9237.12
9087.05
8937.09
8787.24
8637.49
8487.84
8338.29
8188.84
8039.5
7890.27
7741.15
7592.12
7443.2
7294.39
7145.67
6997.06
6848.54
6700.12
6551.79
6403.52
6255.32
6107.14
5958.96
5810.7
5662.26
5513.46
5364.17
5213.18
5057.97
4902.19
4751.12
4601.66
4450.97
4300.01
4150.42
4001.3
3851.84
3702.54
3553.68
3404.95
3256.41
3108.08
2959.54
2811.15
2662.43
2513.83
2363.92
2213.03
2063.82
1914.88
1766.58
1616.93
1467.72
1319.55
1170.39
1021.34
873.128
725.098
577.054
429.512
283.046
135.538
29.4485
0.00845911
-0.198195
-0.3137
-0.505753
-0.671547
-0.855987
-1.03459
-1.21718
-1.39865
-1.58201
-1.76514
14641.3
14494.1
14346.9
14199.7
14052.4
13905.1
13757.8
13610.4
13463
13315.6
13168.1
13020.6
12873
12725.3
12577.6
12429.8
12281.8
12133.7
11985.5
11836.9
11688
11538.7
11388.6
11237.5
11084.6
10929
10770.7
10611.2
10454.4
10299.6
10146.2
9993.82
9842.08
9690.81
9539.88
9389.19
9238.69
9088.36
8938.17
8788.11
8638.18
8488.35
8338.63
8189.01
8039.52
7890.15
7740.9
7591.76
7442.73
7293.81
7144.99
6996.26
6847.63
6699.09
6550.61
6402.19
6253.8
6105.4
5956.93
5808.32
5659.41
5510.01
5359.79
5208.21
5056.05
4903.86
4752.89
4602.48
4452.06
4301.97
4152.33
4002.95
3853.69
3704.59
3555.63
3406.76
3257.99
3109.27
2960.51
2811.68
2662.7
2513.61
2364.18
2214.66
2065.43
1916.28
1767.15
1617.81
1468.62
1319.66
1170.61
1021.7
873.08
724.599
576.307
428.354
281.003
134.054
30.7312
0.0709386
-0.12754
-0.295581
-0.485162
-0.662761
-0.846732
-1.02899
-1.21232
-1.39573
-1.57958
-1.76374
14641.3
14494.1
14346.9
14199.6
14052.3
13905
13757.6
13610.1
13462.6
13315.1
13167.5
13019.8
12872
12724.2
12576.2
12428.2
12280
12131.6
11982.9
11834
11684.7
11534.8
11384.3
11232.9
11080.4
10926.5
10771.2
10614.4
10458.2
10303.4
10149.7
9996.89
9844.76
9693.11
9541.83
9390.83
9240.06
9089.49
8939.07
8788.81
8638.69
8488.69
8338.81
8189.05
8039.42
7889.91
7740.53
7591.27
7442.12
7293.08
7144.14
6995.29
6846.53
6697.84
6549.21
6400.62
6252.03
6103.4
5954.69
5805.82
5656.69
5507.2
5357.22
5206.74
5055.49
4904.08
4753.19
4602.81
4452.64
4302.65
4152.97
4003.52
3854.2
3705.01
3555.95
3407.02
3258.19
3109.42
2960.64
2811.83
2662.92
2513.86
2364.61
2215.17
2065.89
1916.74
1767.68
1618.54
1469.42
1320.43
1171.42
1022.48
873.658
725.007
576.438
427.914
279.674
130.69
27.6432
0.101776
-0.104351
-0.281437
-0.470423
-0.653259
-0.838192
-1.0224
-1.2069
-1.39147
-1.57628
-1.7613
14641.3
14494.1
14346.9
14199.6
14052.3
13904.9
13757.4
13609.9
13462.3
13314.6
13166.9
13019.1
12871.2
12723.1
12575
12426.7
12278.3
12129.6
11980.7
11831.4
11681.8
11531.6
11380.8
11229.3
11076.9
10923.5
10768.9
10613.8
10458.9
10304.8
10151.5
9998.75
9846.54
9694.75
9543.28
9392.09
9241.13
9090.36
8939.77
8789.33
8639.05
8488.89
8338.87
8188.97
8039.2
7889.56
7740.05
7590.67
7441.4
7292.24
7143.19
6994.23
6845.35
6696.54
6547.79
6399.06
6250.33
6101.57
5952.72
5803.72
5654.52
5505.02
5355.17
5204.91
5054.29
4903.62
4753.17
4603
4453.03
4303.23
4153.65
4004.25
3854.99
3705.86
3556.85
3407.92
3259.05
3110.2
2961.34
2812.44
2663.46
2514.4
2365.24
2216.01
2066.8
1917.62
1768.42
1619.21
1469.99
1320.81
1171.62
1022.49
873.403
724.369
575.4
426.238
277.549
127.28
25.4847
0.11671
-0.0831437
-0.269946
-0.458761
-0.644985
-0.831137
-1.01682
-1.20242
-1.38796
-1.57354
-1.75923
14641.4
14494.2
14346.9
14199.6
14052.2
13904.8
13757.3
13609.7
13462
13314.2
13166.4
13018.5
12870.4
12722.2
12573.9
12425.4
12276.7
12127.8
11978.7
11829.2
11679.3
11529
11378.1
11226.6
11074.4
10921.4
10767.8
10613.9
10459.9
10306.4
10153.2
10000.5
9848.23
9696.28
9544.64
9393.26
9242.11
9091.15
8940.37
8789.76
8639.3
8488.98
8338.8
8188.76
8038.85
7889.08
7739.45
7589.95
7440.56
7291.3
7142.14
6993.07
6844.09
6695.18
6546.32
6397.48
6248.65
6099.78
5950.83
5801.77
5652.53
5503.08
5353.38
5203.45
5053.32
4903.12
4753
4603.05
4453.25
4303.61
4154.13
4004.79
3855.58
3706.48
3557.46
3408.51
3259.6
3110.72
2961.82
2812.9
2663.93
2514.89
2365.79
2216.63
2067.45
1918.26
1769.06
1619.84
1470.6
1321.36
1172.12
1022.88
873.602
724.284
574.955
425.17
275.947
124.577
24.2439
0.122936
-0.07184
-0.261562
-0.450198
-0.637922
-0.82505
-1.01176
-1.19823
-1.38455
-1.57085
-1.75717
14641.5
14494.3
14347.1
14199.7
14052.3
13904.8
13757.2
13609.5
13461.8
13313.9
13166
13017.9
12869.8
12721.4
12573
12424.3
12275.5
12126.4
11977
11827.4
11677.3
11526.9
11375.9
11224.5
11072.5
10919.9
10766.9
10613.7
10460.3
10307.2
10154.3
10001.6
9849.35
9697.34
9545.59
9394.08
9242.77
9091.66
8940.73
8789.96
8639.35
8488.88
8338.56
8188.39
8038.35
7888.46
7738.71
7589.09
7439.6
7290.23
7140.98
6991.82
6842.75
6693.75
6544.8
6395.88
6246.97
6098.03
5949.04
5799.95
5650.74
5501.37
5351.84
5202.15
5052.34
4902.48
4752.66
4602.94
4453.32
4303.83
4154.47
4005.21
3856.06
3707
3558.01
3409.07
3260.17
3111.28
2962.39
2813.47
2664.51
2515.5
2366.43
2217.32
2068.16
1918.98
1769.76
1620.5
1471.2
1321.86
1172.48
1023.03
873.51
723.903
574.268
423.979
274.434
122.484
23.3398
0.126796
-0.0635051
-0.254596
-0.443314
-0.631982
-0.8199
-1.0074
-1.19459
-1.38159
-1.56849
-1.75535
14641.7
14494.5
14347.2
14199.9
14052.4
13904.9
13757.2
13609.5
13461.7
13313.7
13165.7
13017.5
12869.2
12720.8
12572.2
12423.4
12274.4
12125.2
11975.6
11825.8
11675.7
11525.2
11374.2
11222.9
11071
10918.8
10766.2
10613.4
10460.5
10307.7
10155
10002.5
9850.21
9698.16
9546.33
9394.7
9243.27
9092.01
8940.93
8790.01
8639.25
8488.64
8338.18
8187.87
8037.71
7887.7
7737.83
7588.11
7438.52
7289.05
7139.7
6990.46
6841.31
6692.24
6543.23
6394.25
6245.29
6096.32
5947.31
5798.24
5649.08
5499.81
5350.43
5200.94
5051.38
4901.79
4752.22
4602.7
4453.27
4303.93
4154.68
4005.52
3856.45
3707.44
3558.49
3409.58
3260.7
3111.83
2962.95
2814.04
2665.1
2516.12
2367.08
2217.99
2068.86
1919.68
1770.44
1621.15
1471.8
1322.38
1172.88
1023.29
873.574
723.714
573.761
423.055
273.074
120.643
22.4391
0.131747
-0.0566986
-0.248756
-0.437624
-0.626971
-0.815506
-1.00364
-1.19142
-1.37897
-1.56639
-1.75373
14642
14494.8
14347.5
14200.1
14052.6
13905
13757.3
13609.6
13461.7
13313.7
13165.5
13017.3
12868.9
12720.3
12571.6
12422.7
12273.5
12124.2
11974.6
11824.7
11674.4
11523.9
11372.9
11221.6
11070
10917.9
10765.7
10613.2
10460.6
10308
10155.4
10003
9850.8
9698.73
9546.83
9395.11
9243.56
9092.17
8940.95
8789.88
8638.98
8488.23
8337.63
8187.19
8036.91
7886.78
7736.8
7586.97
7437.29
7287.74
7138.31
6989
6839.78
6690.66
6541.59
6392.58
6243.6
6094.61
5945.62
5796.58
5647.48
5498.32
5349.08
5199.78
5050.43
4901.06
4751.7
4602.38
4453.11
4303.92
4154.79
4005.74
3856.75
3707.81
3558.92
3410.05
3261.21
3112.36
2963.51
2814.63
2665.72
2516.77
2367.76
2218.71
2069.59
1920.42
1771.18
1621.86
1472.47
1322.97
1173.37
1023.63
873.735
723.614
573.441
422.389
272.023
119.056
21.5348
0.137762
-0.0505951
-0.24359
-0.432807
-0.622729
-0.811792
-1.00044
-1.18872
-1.37674
-1.56459
-1.75233
14642.4
14495.1
14347.8
14200.4
14052.9
13905.3
13757.6
13609.7
13461.8
13313.7
13165.5
13017.1
12868.7
12720
12571.2
12422.2
12272.9
12123.5
11973.7
11823.8
11673.5
11522.9
11372
11220.7
11069.2
10917.3
10765.2
10613
10460.6
10308.1
10155.7
10003.4
9851.19
9699.09
9547.13
9395.32
9243.65
9092.14
8940.78
8789.58
8638.53
8487.64
8336.91
8186.34
8035.94
7885.69
7735.61
7585.69
7435.91
7286.28
7136.78
6987.41
6838.15
6688.98
6539.89
6390.86
6241.87
6092.9
5943.93
5794.95
5645.93
5496.88
5347.78
5198.64
5049.47
4900.29
4751.12
4601.98
4452.88
4303.83
4154.83
4005.88
3856.98
3708.12
3559.3
3410.49
3261.69
3112.89
2964.08
2815.24
2666.37
2517.45
2368.48
2219.45
2070.36
1921.2
1771.96
1622.63
1473.2
1323.65
1173.95
1024.1
874.045
723.715
573.303
421.933
271.281
117.78
20.7233
0.144089
-0.0451526
-0.239047
-0.428756
-0.619202
-0.808706
-0.997793
-1.18646
-1.37486
-1.56306
-1.75114
14642.8
14495.6
14348.3
14200.8
14053.3
13905.6
13757.9
13610
13462
13313.9
13165.6
13017.2
12868.6
12719.9
12571
12421.8
12272.5
12123
11973.2
11823.1
11672.8
11522.2
11371.3
11220.1
11068.6
10916.9
10764.9
10612.8
10460.6
10308.2
10155.9
10003.6
9851.42
9699.28
9547.25
9395.34
9243.57
9091.93
8940.43
8789.09
8637.9
8486.87
8336.01
8185.31
8034.79
7884.43
7734.25
7584.23
7434.37
7284.67
7135.11
6985.69
6836.39
6687.2
6538.1
6389.07
6240.09
6091.15
5942.23
5793.31
5644.39
5495.45
5346.49
5197.5
5048.5
4899.5
4750.5
4601.52
4452.58
4303.67
4154.8
4005.96
3857.16
3708.39
3559.64
3410.9
3262.16
3113.42
2964.65
2815.86
2667.03
2518.16
2369.23
2220.24
2071.18
1922.04
1772.81
1623.48
1474.02
1324.43
1174.67
1024.72
874.549
724.049
573.454
421.819
270.928
117.002
20.186
0.149746
-0.0407383
-0.235285
-0.42548
-0.616398
-0.806245
-0.995678
-1.18465
-1.37334
-1.5618
-1.75014
14643.4
14496.1
14348.8
14201.4
14053.8
13906.1
13758.3
13610.4
13462.3
13314.1
13165.8
13017.3
12868.7
12719.9
12570.9
12421.7
12272.3
12122.7
11972.9
11822.8
11672.4
11521.8
11370.9
11219.7
11068.3
10916.6
10764.7
10612.7
10460.5
10308.3
10156
10003.8
9851.5
9699.32
9547.21
9395.2
9243.31
9091.54
8939.91
8788.42
8637.09
8485.92
8334.92
8184.09
8033.44
7882.98
7732.69
7582.58
7432.65
7282.89
7133.28
6983.83
6834.5
6685.3
6536.2
6387.19
6238.24
6089.35
5940.49
5791.66
5642.84
5494.01
5345.19
5196.35
5047.51
4898.67
4749.84
4601.02
4452.22
4303.45
4154.71
4005.99
3857.29
3708.61
3559.95
3411.28
3262.62
3113.94
2965.23
2816.5
2667.72
2518.9
2370.02
2221.08
2072.05
1922.94
1773.74
1624.41
1474.95
1325.34
1175.55
1025.54
875.281
724.659
573.938
422.094
271.021
116.772
19.9339
0.154433
-0.0375405
-0.232464
-0.42306
-0.614349
-0.804424
-0.994101
-1.18328
-1.37215
-1.56079
-1.74931
14644
14496.8
14349.4
14202
14054.4
13906.7
13758.9
13610.9
13462.8
13314.6
13166.2
13017.7
12869
12720.1
12571.1
12421.8
12272.4
12122.7
11972.8
11822.6
11672.2
11521.6
11370.7
11219.5
11068.1
10916.5
10764.7
10612.7
10460.6
10308.3
10156.1
10003.8
9851.49
9699.23
9547.03
9394.91
9242.89
9090.98
8939.2
8787.56
8636.08
8484.76
8333.62
8182.66
8031.89
7881.31
7730.93
7580.74
7430.74
7280.92
7131.27
6981.79
6832.46
6683.26
6534.18
6385.2
6236.3
6087.47
5938.7
5789.96
5641.25
5492.55
5343.86
5195.17
5046.49
4897.8
4749.13
4600.47
4451.82
4303.19
4154.57
4005.97
3857.39
3708.81
3560.23
3411.65
3263.06
3114.46
2965.82
2817.15
2668.44
2519.68
2370.85
2221.96
2072.99
1923.92
1774.75
1625.45
1476.02
1326.41
1176.61
1026.57
876.273
725.584
574.795
422.831
271.639
117.239
20.0483
0.15802
-0.0357643
-0.230706
-0.421589
-0.613088
-0.803258
-0.993065
-1.18233
-1.37131
-1.56003
-1.74863
14644.8
14497.6
14350.2
14202.7
14055.1
13907.4
13759.5
13611.5
13463.4
13315.1
13166.7
13018.2
12869.4
12720.5
12571.4
12422.1
12272.6
12122.9
11972.9
11822.7
11672.3
11521.6
11370.7
11219.5
11068.1
10916.5
10764.7
10612.7
10460.6
10308.4
10156.1
10003.7
9851.38
9699.03
9546.72
9394.47
9242.3
9090.24
8938.3
8786.51
8634.86
8483.39
8332.1
8181
8030.11
7879.42
7728.94
7578.67
7428.6
7278.74
7129.07
6979.57
6830.24
6681.06
6532.02
6383.09
6234.26
6085.51
5936.83
5788.2
5639.61
5491.05
5342.5
5193.96
5045.43
4896.9
4748.39
4599.88
4451.38
4302.88
4154.4
4005.92
3857.45
3708.98
3560.5
3412.01
3263.51
3114.98
2966.42
2817.82
2669.18
2520.49
2371.73
2222.9
2073.99
1924.98
1775.86
1626.61
1477.21
1327.64
1177.86
1027.84
877.55
726.853
576.053
424.069
272.826
118.472
20.5803
0.159717
-0.0356482
-0.230173
-0.421144
-0.612638
-0.802762
-0.992567
-1.18181
-1.37078
-1.5595
-1.74809
14645.7
14498.4
14351.1
14203.6
14056
13908.2
13760.3
13612.3
13464.2
13315.9
13167.4
13018.8
12870
12721.1
12571.9
12422.6
12273
12123.3
11973.3
11823.1
11672.6
11521.9
11370.9
11219.7
11068.3
10916.7
10764.9
10612.9
10460.7
10308.5
10156.1
10003.7
9851.2
9698.74
9546.29
9393.89
9241.56
9089.33
8937.22
8785.25
8633.43
8481.79
8330.35
8179.11
8028.08
7877.28
7726.7
7576.35
7426.23
7276.33
7126.64
6977.14
6827.83
6678.69
6529.7
6380.84
6232.09
6083.44
5934.87
5786.37
5637.91
5489.48
5341.08
5192.7
5044.33
4895.96
4747.6
4599.25
4450.9
4302.54
4154.2
4005.84
3857.49
3709.13
3560.75
3412.36
3263.95
3115.51
2967.03
2818.52
2669.96
2521.34
2372.66
2223.9
2075.06
1926.12
1777.07
1627.89
1478.56
1329.05
1179.33
1029.36
879.122
728.482
577.726
425.826
274.597
120.48
21.5481
0.158354
-0.0371664
-0.230976
-0.421732
-0.613
-0.80293
-0.992594
-1.18171
-1.37057
-1.55918
-1.74768
14646.7
14499.4
14352
14204.6
14056.9
13909.2
13761.3
13613.2
13465.1
13316.7
13168.3
13019.6
12870.8
12721.8
12572.7
12423.3
12273.7
12123.9
11973.9
11823.6
11673.1
11522.3
11371.4
11220.1
11068.7
10917
10765.2
10613.1
10460.9
10308.6
10156.1
10003.6
9850.97
9698.36
9545.75
9393.18
9240.67
9088.25
8935.94
8783.77
8631.77
8479.95
8328.34
8176.94
8025.78
7874.86
7724.18
7573.76
7423.59
7273.66
7123.96
6974.48
6825.2
6676.11
6527.19
6378.42
6229.77
6081.24
5932.8
5784.44
5636.13
5487.86
5339.61
5191.39
5043.18
4894.98
4746.78
4598.58
4450.38
4302.18
4153.96
4005.74
3857.51
3709.26
3561
3412.71
3264.39
3116.05
2967.66
2819.24
2670.76
2522.23
2373.63
2224.96
2076.2
1927.35
1778.39
1629.29
1480.05
1330.63
1181
1031.14
880.996
730.469
579.815
428.087
276.932
123.195
22.9098
0.15388
-0.0400498
-0.233039
-0.423259
-0.614129
-0.803724
-0.993114
-1.18199
-1.37065
-1.55905
-1.74737
14647.8
14500.5
14353.1
14205.6
14058
13910.2
13762.3
13614.3
13466.1
13317.8
13169.3
13020.6
12871.8
12722.8
12573.6
12424.2
12274.5
12124.7
11974.6
11824.3
11673.8
11523
11372
11220.7
11069.2
10917.5
10765.6
10613.4
10461.1
10308.7
10156.1
10003.4
9850.68
9697.9
9545.1
9392.33
9239.61
9086.97
8934.45
8782.07
8629.86
8477.84
8326.04
8174.48
8023.17
7872.13
7721.36
7570.86
7420.64
7270.69
7121
6971.55
6822.32
6673.31
6524.48
6375.81
6227.29
6078.9
5930.61
5782.4
5634.25
5486.15
5338.08
5190.03
5041.99
4893.96
4745.93
4597.89
4449.84
4301.78
4153.71
4005.62
3857.51
3709.39
3561.23
3413.05
3264.84
3116.6
2968.31
2819.98
2671.59
2523.15
2374.65
2226.07
2077.42
1928.66
1779.8
1630.81
1481.68
1332.38
1182.89
1033.16
883.163
732.803
582.31
430.826
279.794
126.517
24.5798
0.147938
-0.0437322
-0.236096
-0.425559
-0.615942
-0.805079
-0.994084
-1.18264
-1.37099
-1.55911
-1.74716
14649
14501.7
14354.4
14206.9
14059.2
13911.4
13763.5
13615.5
13467.3
13318.9
13170.4
13021.8
12872.9
12723.9
12574.7
12425.2
12275.6
12125.7
11975.6
11825.3
11674.7
11523.9
11372.8
11221.5
11069.9
10918.1
10766.1
10613.9
10461.5
10308.9
10156.1
10003.3
9850.36
9697.37
9544.35
9391.35
9238.39
9085.51
8932.74
8780.12
8627.68
8475.44
8323.44
8171.69
8020.23
7869.05
7718.18
7567.62
7417.36
7267.4
7117.72
6968.32
6819.17
6670.25
6521.53
6373
6224.64
6076.41
5928.28
5780.25
5632.28
5484.36
5336.47
5188.61
5040.75
4892.89
4745.03
4597.16
4449.27
4301.37
4153.44
4005.49
3857.51
3709.51
3561.47
3413.4
3265.3
3117.16
2968.97
2820.74
2672.46
2524.12
2375.72
2227.25
2078.7
1930.06
1781.31
1632.45
1483.46
1334.3
1184.97
1035.41
885.613
735.469
585.193
434.012
283.142
130.358
26.4673
0.142341
-0.047831
-0.2398
-0.428448
-0.618335
-0.806915
-0.995447
-1.18361
-1.37156
-1.55933
-1.74704
14650.4
14503.1
14355.7
14208.2
14060.6
13912.8
13764.9
13616.8
13468.6
13320.3
13171.8
13023.1
12874.2
12725.2
12576
12426.5
12276.8
12127
11976.8
11826.5
11675.8
11525
11373.8
11222.5
11070.8
10918.9
10766.8
10614.4
10461.9
10309.1
10156.2
10003.2
9850
9696.77
9543.5
9390.23
9236.99
9083.83
8930.79
8777.9
8625.19
8472.71
8320.48
8168.54
8016.9
7865.59
7714.61
7563.98
7413.69
7263.73
7114.1
6964.76
6815.71
6666.9
6518.33
6369.96
6221.78
6073.73
5925.8
5777.97
5630.2
5482.48
5334.79
5187.12
5039.46
4891.79
4744.11
4596.41
4448.69
4300.94
4153.16
4005.35
3857.5
3709.63
3561.71
3413.76
3265.77
3117.73
2969.65
2821.53
2673.35
2525.12
2376.83
2228.47
2080.04
1931.52
1782.92
1634.2
1485.36
1336.38
1187.23
1037.89
888.327
738.447
588.444
437.627
286.959
134.724
28.559
0.13781
-0.0524193
-0.243896
-0.431885
-0.621207
-0.809163
-0.997163
-1.18485
-1.37234
-1.5597
-1.747
14651.8
14504.6
14357.2
14209.7
14062
13914.3
13766.4
13618.3
13470.1
13321.8
13173.3
13024.6
12875.7
12726.7
12577.4
12428
12278.3
12128.4
11978.3
11827.9
11677.2
11526.3
11375.1
11223.6
11071.9
10919.9
10767.6
10615.1
10462.4
10309.5
10156.3
10003
9849.62
9696.11
9542.54
9388.96
9235.41
9081.93
8928.57
8775.37
8622.37
8469.62
8317.14
8164.97
8013.15
7861.68
7710.6
7559.9
7409.59
7259.65
7110.07
6960.83
6811.89
6663.24
6514.85
6366.68
6218.69
6070.86
5923.16
5775.54
5628
5480.5
5333.03
5185.58
5038.12
4890.65
4743.15
4595.63
4448.08
4300.49
4152.87
4005.2
3857.49
3709.75
3561.96
3414.12
3266.25
3118.32
2970.36
2822.34
2674.28
2526.16
2377.98
2229.74
2081.44
1933.06
1784.6
1636.04
1487.38
1338.59
1189.66
1040.57
891.282
741.716
592.039
441.664
291.272
139.716
30.9786
0.13366
-0.0580431
-0.248417
-0.435953
-0.624478
-0.811773
-0.99919
-1.18632
-1.37329
-1.56018
-1.74701
14653.4
14506.2
14358.8
14211.3
14063.6
13915.9
13768
13619.9
13471.8
13323.4
13174.9
13026.3
12877.4
12728.4
12579.1
12429.7
12280
12130.1
11979.9
11829.5
11678.8
11527.8
11376.5
11225
11073.2
10921
10768.6
10616
10463
10309.9
10156.5
10002.9
9849.21
9695.38
9541.47
9387.54
9233.63
9079.79
8926.07
8772.51
8619.18
8466.11
8313.35
8160.93
8008.9
7857.27
7706.08
7555.31
7404.99
7255.09
7105.59
6956.47
6807.69
6659.22
6511.05
6363.11
6215.37
6067.79
5920.34
5772.97
5625.68
5478.43
5331.2
5183.97
5036.73
4889.47
4742.17
4594.84
4447.47
4300.04
4152.58
4005.06
3857.49
3709.87
3562.21
3414.5
3266.74
3118.93
2971.08
2823.17
2675.22
2527.22
2379.17
2231.06
2082.89
1934.65
1786.35
1637.96
1489.49
1340.92
1192.23
1043.41
894.448
745.267
595.919
446.101
296.121
145.417
33.9036
0.127675
-0.0651011
-0.253678
-0.440665
-0.628133
-0.814683
-1.00145
-1.18795
-1.37436
-1.56075
-1.74707
14655.2
14507.9
14360.5
14213
14065.4
13917.6
13769.7
13621.7
13473.6
13325.2
13176.8
13028.1
12879.3
12730.3
12581
12431.6
12281.9
12132
11981.8
11831.3
11680.6
11529.6
11378.2
11226.6
11074.7
10922.4
10769.8
10617
10463.8
10310.4
10156.7
10002.8
9848.78
9694.58
9540.29
9385.95
9231.62
9077.36
8923.23
8769.28
8615.56
8462.13
8309.05
8156.35
8004.09
7852.28
7700.97
7550.14
7399.82
7249.98
7100.6
6951.64
6803.06
6654.84
6506.91
6359.24
6211.78
6064.49
5917.33
5770.25
5623.23
5476.25
5329.28
5182.3
5035.3
4888.26
4741.17
4594.04
4446.85
4299.6
4152.29
4004.92
3857.5
3710.01
3562.48
3414.89
3267.25
3119.55
2971.81
2824.03
2676.19
2528.31
2380.38
2232.4
2084.37
1936.29
1788.15
1639.95
1491.68
1343.33
1194.9
1046.38
897.76
748.991
600.088
450.906
301.493
151.827
37.4739
0.117592
-0.0736225
-0.259821
-0.445868
-0.632125
-0.817788
-1.00387
-1.18969
-1.37553
-1.56138
-1.74718
14657
14509.7
14362.3
14214.8
14067.2
13919.5
13771.6
13623.6
13475.5
13327.2
13178.8
13030.1
12881.3
12732.3
12583.1
12433.7
12284
12134.1
11983.9
11833.4
11682.7
11531.6
11380.2
11228.5
11076.4
10924
10771.2
10618.2
10464.8
10311
10157
10002.8
9848.34
9693.72
9538.97
9384.17
9229.37
9074.63
8920.02
8765.61
8611.46
8457.62
8304.17
8151.15
7998.62
7846.62
7695.18
7544.3
7394
7244.25
7095.02
6946.27
6797.93
6649.99
6502.38
6355.04
6207.92
6060.96
5914.12
5767.37
5620.66
5473.98
5327.29
5180.58
5033.83
4887.02
4740.16
4593.23
4446.23
4299.16
4152.01
4004.8
3857.52
3710.17
3562.76
3415.29
3267.77
3120.2
2972.57
2824.9
2677.18
2529.42
2381.62
2233.77
2085.89
1937.96
1789.99
1641.97
1493.91
1345.8
1197.64
1049.43
901.173
752.841
604.447
455.95
307.301
158.719
41.6541
0.103425
-0.082226
-0.267263
-0.451256
-0.636355
-0.82095
-1.00635
-1.19147
-1.37674
-1.56204
-1.74731
14658.9
14511.7
14364.3
14216.8
14069.2
13921.5
13773.7
13625.7
13477.6
13329.3
13180.9
13032.3
12883.6
12734.6
12585.4
12436
12286.4
12136.4
11986.3
11835.8
11685
11533.9
11382.4
11230.6
11078.4
10925.8
10772.9
10619.5
10465.9
10311.8
10157.5
10002.8
9847.89
9692.78
9537.52
9382.19
9226.84
9071.55
8916.39
8761.45
8606.79
8452.49
8298.61
8145.23
7992.4
7840.18
7688.6
7537.68
7387.42
7237.81
7088.78
6940.29
6792.28
6644.68
6497.44
6350.48
6203.74
6057.17
5910.71
5764.32
5617.97
5471.61
5325.24
5178.82
5032.34
4885.78
4739.15
4592.43
4445.63
4298.73
4151.76
4004.7
3857.56
3710.35
3563.07
3415.72
3268.32
3120.86
2973.35
2825.79
2678.19
2530.55
2382.87
2235.16
2087.42
1939.65
1791.85
1644.02
1496.17
1348.3
1200.41
1052.51
904.617
756.732
608.875
461.042
313.307
165.744
46.1147
0.090395
-0.0897144
-0.274846
-0.456055
-0.640544
-0.824003
-1.0088
-1.19323
-1.37795
-1.56271
-1.74747
14661
14513.7
14366.4
14218.9
14071.3
13923.6
13775.8
13627.9
13479.8
13331.6
13183.2
13034.7
12886
12737.1
12587.9
12438.5
12288.9
12139
11988.9
11838.4
11687.6
11536.4
11384.9
11233
11080.6
10927.9
10774.7
10621.2
10467.2
10312.8
10158
10002.9
9847.44
9691.77
9535.92
9379.96
9223.98
9068.06
8912.28
8756.72
8601.48
8446.63
8292.27
8138.47
7985.3
7832.82
7681.1
7530.14
7379.96
7230.53
7081.78
6933.62
6786
6638.83
6492.04
6345.54
6199.25
6053.13
5907.1
5761.12
5615.15
5469.16
5323.12
5177.02
5030.83
4884.54
4738.15
4591.65
4445.05
4298.34
4151.53
4004.63
3857.64
3710.56
3563.4
3416.18
3268.89
3121.54
2974.14
2826.69
2679.21
2531.69
2384.14
2236.56
2088.96
1941.34
1793.71
1646.06
1498.42
1350.78
1203.16
1055.56
908.021
760.565
613.234
465.976
319.186
172.432
50.431
0.079435
-0.0950806
-0.279911
-0.459947
-0.644287
-0.826826
-1.01108
-1.19491
-1.37911
-1.56337
-1.74765
14663.2
14515.9
14368.5
14221.1
14073.5
13925.9
13778.1
13630.2
13482.2
13334
13185.7
13037.2
12888.6
12739.7
12590.6
12441.3
12291.7
12141.9
11991.8
11841.3
11690.5
11539.3
11387.7
11235.7
11083.2
10930.3
10776.9
10623
10468.7
10313.9
10158.7
10003
9846.99
9690.68
9534.14
9377.47
9220.76
9064.1
8907.59
8751.32
8595.41
8439.93
8285
8130.71
7977.14
7824.38
7672.49
7521.51
7371.46
7222.29
7073.9
6926.18
6779.05
6632.41
6486.15
6340.18
6194.43
6048.81
5903.27
5757.75
5612.21
5466.62
5320.96
5175.19
5029.31
4883.31
4737.17
4590.9
4444.51
4297.99
4151.35
4004.6
3857.75
3710.8
3563.77
3416.66
3269.48
3122.24
2974.95
2827.61
2680.24
2532.84
2385.4
2237.96
2090.49
1943.02
1795.55
1648.09
1500.64
1353.22
1205.84
1058.54
911.316
764.241
617.388
470.562
324.679
178.43
54.2714
0.0697005
-0.0992219
-0.28618
-0.463532
-0.647762
-0.829367
-1.01317
-1.19646
-1.38017
-1.56397
-1.74782
14665.4
14518.2
14370.8
14223.4
14075.9
13928.2
13780.5
13632.7
13484.7
13336.6
13188.4
13039.9
12891.3
12742.6
12593.5
12444.3
12294.8
12145
11994.9
11844.5
11693.7
11542.5
11390.8
11238.7
11086.1
10933
10779.4
10625.2
10470.5
10315.3
10159.5
10003.2
9846.55
9689.5
9532.17
9374.67
9217.1
9059.58
8902.22
8745.14
8588.42
8432.19
8276.59
8121.73
7967.7
7814.61
7662.54
7511.56
7361.7
7212.92
7065.06
6917.9
6771.38
6625.35
6479.72
6334.38
6189.24
6044.21
5899.22
5754.22
5609.17
5464.02
5318.76
5173.36
5027.81
4882.1
4736.23
4590.2
4444.02
4297.69
4151.22
4004.62
3857.91
3711.09
3564.17
3417.17
3270.1
3122.96
2975.78
2828.54
2681.28
2533.98
2386.67
2239.34
2092.01
1944.68
1797.37
1650.07
1502.81
1355.59
1208.44
1061.38
914.44
767.676
621.237
474.667
329.573
183.556
57.3842
0.0621072
-0.102808
-0.290119
-0.466598
-0.650534
-0.831611
-1.01494
-1.19781
-1.38109
-1.56451
-1.74799
14667.8
14520.5
14373.2
14225.8
14078.3
13930.7
13783
13635.3
13487.3
13339.3
13191.1
13042.8
12894.3
12745.6
12596.7
12447.5
12298.1
12148.4
11998.4
11848
11697.2
11546
11394.3
11242.1
11089.4
10936.1
10782.2
10627.7
10472.6
10316.9
10160.5
10003.6
9846.12
9688.22
9529.97
9371.5
9212.93
9054.4
8896.02
8737.94
8580.24
8423.09
8266.69
8111.2
7956.7
7803.27
7651.02
7500.03
7350.37
7202.07
7055.03
6908.54
6762.81
6617.6
6472.76
6328.18
6183.76
6039.4
5895.02
5750.57
5606.04
5461.38
5316.56
5171.55
5026.36
4880.96
4735.36
4589.57
4443.6
4297.46
4151.16
4004.71
3858.13
3711.42
3564.62
3417.72
3270.75
3123.71
2976.62
2829.48
2682.31
2535.12
2387.92
2240.71
2093.5
1946.31
1799.14
1652
1504.91
1357.88
1210.93
1064.08
917.364
770.833
624.707
478.135
333.858
187.733
59.706
0.0599837
-0.10563
-0.292714
-0.468989
-0.652584
-0.83344
-1.01634
-1.19894
-1.38187
-1.56496
-1.74814
14670.2
14522.9
14375.6
14228.2
14080.8
13933.3
13785.6
13637.9
13490.1
13342.1
13194.1
13045.8
12897.4
12748.8
12600
12451
12301.7
12152
12002.1
11851.8
11701
11549.8
11398.2
11245.9
11093.1
10939.6
10785.5
10630.7
10475.1
10318.8
10161.8
10004.1
9845.72
9686.83
9527.5
9367.88
9208.1
9048.31
8888.65
8729.35
8570.56
8412.4
8255.08
8098.77
7943.65
7789.82
7637.37
7486.36
7336.92
7189.17
7042.96
6897.82
6753.16
6608.98
6465.13
6321.47
6177.89
6034.32
5890.66
5746.86
5602.92
5458.77
5314.4
5169.8
5024.96
4879.9
4734.58
4589.03
4443.28
4297.32
4151.18
4004.87
3858.41
3711.82
3565.11
3418.31
3271.43
3124.48
2977.47
2830.42
2683.35
2536.26
2389.15
2242.05
2094.96
1947.9
1800.86
1653.86
1506.92
1360.06
1213.27
1066.61
920.077
773.721
627.813
481.402
337.106
190.979
61.266
0.0603919
-0.107373
-0.294004
-0.470685
-0.653973
-0.834853
-1.01741
-1.19983
-1.3825
-1.56534
-1.74827
14672.7
14525.4
14378.1
14230.8
14083.4
13935.9
13788.4
13640.7
13493
13345.1
13197.1
13049
12900.7
12752.2
12603.5
12454.6
12305.4
12156
12006.1
11855.9
11705.3
11554.1
11402.4
11250.2
11097.2
10943.6
10789.2
10634
10478
10321.1
10163.3
10004.7
9845.38
9685.32
9524.71
9363.65
9202.31
9040.99
8879.93
8719.21
8559.01
8399.54
8241.06
8083.79
7927.97
7773.76
7621.18
7470.31
7321.46
7175.49
7030.63
6886.16
6742.49
6599.43
6456.71
6314.13
6171.55
6028.9
5886.08
5743.04
5599.76
5456.2
5312.35
5168.18
5023.72
4878.97
4733.92
4588.61
4443.07
4297.29
4151.3
4005.12
3858.77
3712.28
3565.67
3418.94
3272.14
3125.26
2978.34
2831.37
2684.38
2537.37
2390.37
2243.37
2096.38
1949.43
1802.51
1655.65
1508.84
1362.12
1215.49
1068.97
922.576
776.345
630.537
484.192
339.755
193.458
62.1715
0.0621008
-0.108068
-0.294179
-0.471707
-0.654773
-0.835865
-1.0182
-1.20052
-1.38302
-1.56566
-1.74838
14675.2
14528
14380.7
14233.4
14086
13938.6
13791.1
13643.6
13495.9
13348.2
13200.3
13052.3
12904.1
12755.8
12607.3
12458.5
12309.5
12160.1
12010.5
11860.4
11709.9
11558.8
11407.2
11254.9
11101.9
10948.1
10793.4
10637.9
10481.3
10323.8
10165.2
10005.6
9845.1
9683.66
9521.41
9358.54
9195.45
9032.37
8869.56
8707.08
8545.11
8383.98
8224.06
8065.65
7909.08
7754.51
7601.93
7451.06
7301.22
7154.84
7014.64
6872.5
6730.39
6588.8
6447.48
6306.18
6164.77
6023.16
5881.28
5739.08
5596.53
5453.63
5310.35
5166.69
5022.65
4878.24
4733.47
4588.38
4443.02
4297.4
4151.54
4005.48
3859.23
3712.82
3566.28
3419.63
3272.89
3126.08
2979.22
2832.32
2685.4
2538.47
2391.55
2244.64
2097.75
1950.9
1804.1
1657.35
1510.67
1364.07
1217.56
1071.16
924.876
778.733
632.934
486.629
341.996
195.335
62.6411
0.0645305
-0.108119
-0.293694
-0.472251
-0.655191
-0.836551
-1.0188
-1.20104
-1.38343
-1.56592
-1.74848
14677.8
14530.6
14383.3
14236.1
14088.8
13941.4
13794
13646.5
13498.9
13351.3
13203.6
13055.7
12907.7
12759.5
12611.2
12462.6
12313.7
12164.6
12015.1
11865.2
11714.8
11563.9
11412.4
11260.1
11107.1
10953.1
10798.2
10642.3
10485.3
10327
10167.5
10006.8
9844.88
9681.67
9517.45
9352.53
9187.3
9022.08
8857.24
8692.79
8528.76
8365.59
8203.79
8043.88
7886.18
7730.78
7577.39
7425.31
7275.42
7142.88
7005.72
6859.58
6717.7
6577.45
6437.61
6297.73
6157.61
6017.15
5876.28
5734.99
5593.26
5451.08
5308.43
5165.3
5021.72
4877.68
4733.21
4588.36
4443.18
4297.69
4151.94
4005.96
3859.78
3713.44
3566.96
3420.36
3273.67
3126.91
2980.1
2833.27
2686.41
2539.55
2392.7
2245.87
2099.07
1952.32
1805.61
1658.97
1512.4
1365.9
1219.5
1073.2
927.007
780.926
635.08
488.844
343.752
197.135
62.9321
0.0686808
-0.107737
-0.292469
-0.472443
-0.655196
-0.836953
-1.01921
-1.20144
-1.38375
-1.56613
-1.74854
14680.4
14533.2
14386
14238.8
14091.5
13944.2
13796.9
13649.5
13502
13354.5
13206.9
13059.2
12911.4
12763.4
12615.2
12466.8
12318.2
12169.3
12020
11870.3
11720.2
11569.4
11418
11265.9
11112.9
10958.9
10803.7
10647.4
10489.8
10330.8
10170.4
10008.4
9844.61
9679.31
9512.78
9345.42
9177.69
9010.15
8843.12
8676.36
8509.8
8344.14
8180.17
8018.67
7860.23
7705.14
7553.46
7405.15
7260.42
7121.31
6980.24
6839.69
6701.66
6564.72
6427.12
6288.95
6150.28
6011.06
5871.28
5730.95
5590.07
5448.63
5306.62
5164.05
5020.94
4877.3
4733.14
4588.53
4443.54
4298.19
4152.53
4006.61
3860.47
3714.16
3567.71
3421.15
3274.49
3127.77
2981
2834.21
2687.4
2540.6
2393.81
2247.05
2100.33
1953.66
1807.05
1660.5
1514.02
1367.63
1221.33
1075.11
928.999
782.972
637.087
490.954
345.444
198.895
63.307
0.0733585
-0.107534
-0.291062
-0.472577
-0.655149
-0.837252
-1.01955
-1.20178
-1.38404
-1.56632
-1.74859