/*--------------------------------*- C++ -*----------------------------------*\
| =========                 |                                                 |
| \\      /  F ield         | OpenFOAM: The Open Source CFD Toolbox           |
|  \\    /   O peration     | Version:  v2106                                 |
|   \\  /    A nd           | Website:  www.openfoam.com                      |
|    \\/     M anipulation  |                                                 |
\*---------------------------------------------------------------------------*/
FoamFile
{
    version     2.0;
    format      ascii;
    arch        "LSB;label=32;scalar=64";
    class       volScalarField;
    location    "1.7";
    object      p_rgh;
}
// * * * * * * * * * * * * * * * * * * * * * * * * * * * * * * * * * * * * * //

dimensions      [1 -1 -2 0 0 0 0];

internalField   nonuniform List<scalar> 
29678
(
-0.0365735
-0.0431891
-0.0563422
-0.0749937
-0.096196
-0.122217
-0.158703
-0.20424
-0.256188
-0.316072
-0.385155
-0.46467
-0.556184
-0.661783
-0.784321
-0.927861
-1.09848
-1.30584
-1.56648
-1.91124
-2.40314
-3.18174
-4.571
-7.28371
-12.5236
-22.1573
-40.3557
-66.285
-77.8406
-84.4666
-89.3031
-93.2933
-96.7816
-99.9638
-102.943
-105.786
-108.524
-111.187
-113.772
-116.271
-118.685
-121.003
-123.215
-125.337
-127.374
-129.302
-131.127
-132.861
-134.494
-136.016
-137.43
-138.739
-139.936
-141.021
-141.998
-142.868
-143.64
-144.329
-144.972
-145.647
-146.508
-147.873
-150.625
-155.487
-166.355
-175.192
-178.998
-180.876
-185.218
-188.629
-190.715
-192.574
-194.736
-196.775
-198.712
-200.295
-201.645
-202.759
-204.094
-205.295
-207.06
-208.581
-212.069
-215.731
-217.49
-219.267
-220.393
-223.25
-225.208
-226.329
-228.72
-230.674
-231.517
-232.47
-233.477
-233.679
-233.52
-232.511
-61.1824
-0.0109391
-0.134194
-0.0408231
-0.0678452
-0.0379614
-0.0404789
-0.0313197
-0.0289514
-0.0244677
-0.0226094
-0.0204887
-0.0906771
-0.106114
-0.137079
-0.18301
-0.243184
-0.326931
-0.439115
-0.572363
-0.725076
-0.901298
-1.10445
-1.33815
-1.60691
-1.91657
-2.27492
-2.69259
-3.18465
-3.77297
-4.49039
-5.38686
-6.53767
-8.048
-10.0348
-12.6042
-16.0871
-21.9904
-34.1726
-58.1711
-71.1426
-79.1044
-84.8577
-89.5426
-93.6079
-97.276
-100.669
-103.863
-106.905
-109.826
-112.636
-115.337
-117.933
-120.432
-122.833
-125.131
-127.325
-129.405
-131.377
-133.25
-135.023
-136.689
-138.251
-139.715
-141.081
-142.352
-143.537
-144.65
-145.706
-146.731
-147.765
-148.874
-150.161
-151.818
-153.957
-157.792
-165.849
-174.479
-178.406
-180.718
-184.249
-188.066
-190.499
-192.478
-194.782
-196.931
-198.643
-200.221
-201.611
-202.791
-204.182
-205.427
-206.998
-208.445
-211.207
-214.941
-217.004
-218.797
-219.947
-222.441
-224.509
-225.521
-227.534
-229.44
-230.496
-231.377
-232.271
-232.663
-231.979
-232.337
-60.3165
-0.0835122
-0.106226
-0.0377938
-0.0459088
-0.027766
-0.0282684
-0.0229372
-0.021585
-0.019118
-0.0185416
-0.0177344
-0.127345
-0.151804
-0.201444
-0.276899
-0.381472
-0.525767
-0.709238
-0.925233
-1.17591
-1.46601
-1.80041
-2.18481
-2.62629
-3.1339
-3.71949
-4.39896
-5.19403
-6.13518
-7.2659
-8.64902
-10.376
-12.582
-15.4794
-19.4531
-25.244
-33.7043
-44.8099
-57.1232
-66.8663
-74.4981
-80.7063
-85.9565
-90.54
-94.6597
-98.4472
-101.986
-105.33
-108.512
-111.552
-114.461
-117.245
-119.921
-122.496
-124.961
-127.304
-129.521
-131.62
-133.61
-135.492
-137.267
-138.938
-140.512
-141.993
-143.389
-144.714
-145.985
-147.227
-148.477
-149.791
-151.258
-153.012
-155.264
-158.331
-162.765
-167.77
-172.817
-176.631
-179.893
-183.159
-186.104
-188.591
-190.824
-192.937
-194.888
-196.692
-198.408
-200.034
-201.602
-203.216
-204.894
-206.719
-208.668
-210.942
-213.316
-215.389
-217.392
-219.374
-221.563
-223.607
-225.414
-227.317
-229.079
-230.545
-231.876
-233.018
-233.821
-234.022
-233.82
-61.3953
-0.0210356
-0.0355704
-0.0196752
-0.0253184
-0.0189802
-0.0190137
-0.0173369
-0.0167304
-0.0162021
-0.0161086
-0.0163334
-0.136285
-0.169879
-0.238389
-0.343209
-0.491649
-0.693645
-0.945787
-1.24253
-1.58818
-1.98838
-2.44932
-2.97836
-3.58463
-4.27969
-5.07832
-5.9999
-7.07018
-8.32405
-9.80941
-11.5923
-13.7631
-16.4453
-19.8058
-24.0635
-29.4448
-36.1433
-44.3572
-54.0101
-63.0388
-70.7243
-77.2439
-82.8808
-87.8643
-92.3624
-96.4936
-100.341
-103.959
-107.387
-110.649
-113.761
-116.734
-119.581
-122.312
-124.924
-127.407
-129.76
-131.989
-134.102
-136.103
-137.997
-139.788
-141.485
-143.096
-144.634
-146.114
-147.559
-148.997
-150.47
-152.031
-153.754
-155.732
-158.078
-160.907
-164.231
-168.335
-172.59
-176.338
-179.565
-182.586
-185.425
-187.959
-190.256
-192.425
-194.467
-196.371
-198.152
-199.835
-201.456
-203.084
-204.748
-206.505
-208.418
-210.518
-212.802
-214.931
-216.931
-218.845
-220.833
-222.805
-224.65
-226.5
-228.299
-229.967
-231.468
-232.887
-234.261
-235.351
-237.185
-55.1827
0.00980115
-0.0123822
-0.00553058
-0.0105794
-0.009478
-0.0104735
-0.0107448
-0.0113101
-0.0119427
-0.0128104
-0.013892
-0.106905
-0.149431
-0.236253
-0.369468
-0.560227
-0.817126
-1.13455
-1.5088
-1.9453
-2.45045
-3.03144
-3.69693
-4.45755
-5.32649
-6.32035
-7.46024
-8.77346
-10.2958
-12.0744
-14.1715
-16.6675
-19.6632
-23.28
-27.6551
-32.9291
-39.2189
-46.5791
-54.5916
-62.2868
-69.2386
-75.4454
-81.0198
-86.0802
-90.7277
-95.042
-99.0838
-102.897
-106.514
-109.956
-113.24
-116.378
-119.38
-122.256
-125.006
-127.627
-130.114
-132.472
-134.707
-136.825
-138.832
-140.736
-142.546
-144.273
-145.93
-147.535
-149.113
-150.69
-152.306
-154.008
-155.852
-157.909
-160.253
-162.959
-166.064
-169.534
-173.055
-176.35
-179.371
-182.198
-184.844
-187.279
-189.528
-191.632
-193.611
-195.478
-197.257
-198.978
-200.674
-202.383
-204.138
-205.965
-207.879
-209.889
-211.967
-214.02
-216.058
-218.1
-220.166
-222.231
-224.269
-226.304
-228.29
-230.222
-232.106
-233.925
-235.937
-237.476
-240.595
-50.6308
0.0247392
0.00882553
0.00596052
0.00108274
-0.00120329
-0.00341818
-0.00516794
-0.00682489
-0.00842488
-0.0100712
-0.0118262
-0.0289884
-0.0800842
-0.18435
-0.345132
-0.576037
-0.884441
-1.26333
-1.71093
-2.23316
-2.83694
-3.53018
-4.32242
-5.22519
-6.25261
-7.42201
-8.75487
-10.278
-12.0254
-14.0403
-16.3771
-19.1021
-22.2928
-26.0321
-30.4006
-35.4663
-41.2534
-47.6872
-54.5024
-61.2808
-67.7205
-73.7117
-79.2567
-84.3985
-89.19
-93.6806
-97.9126
-101.919
-105.727
-109.355
-112.818
-116.128
-119.293
-122.322
-125.216
-127.972
-130.591
-133.075
-135.429
-137.66
-139.777
-141.787
-143.701
-145.531
-147.293
-149.005
-150.69
-152.376
-154.096
-155.892
-157.808
-159.893
-162.194
-164.742
-167.529
-170.508
-173.557
-176.521
-179.324
-181.971
-184.462
-186.795
-188.98
-191.042
-192.999
-194.868
-196.668
-198.424
-200.159
-201.901
-203.673
-205.495
-207.383
-209.338
-211.347
-213.375
-215.411
-217.461
-219.535
-221.625
-223.715
-225.807
-227.899
-230.023
-232.191
-234.37
-237.005
-239.078
-243.298
-48.1067
0.0309618
0.0201293
0.0143446
0.00964553
0.00585905
0.00266896
-0.000102802
-0.00263314
-0.00502199
-0.00738193
-0.00976691
0.107177
0.0479283
-0.0728836
-0.260186
-0.528753
-0.884881
-1.32118
-1.83723
-2.43926
-3.13448
-3.93124
-4.83951
-5.87129
-7.04097
-8.36581
-9.8666
-11.5685
-13.5021
-15.7048
-18.2218
-21.1054
-24.4123
-28.197
-32.504
-37.3592
-42.7488
-48.5908
-54.7141
-60.8855
-66.9103
-72.6722
-78.1266
-83.2734
-88.1329
-92.7319
-97.097
-101.251
-105.213
-108.997
-112.616
-116.079
-119.392
-122.561
-125.588
-128.472
-131.214
-133.816
-136.283
-138.622
-140.84
-142.948
-144.957
-146.878
-148.729
-150.527
-152.293
-154.055
-155.841
-157.686
-159.623
-161.686
-163.902
-166.284
-168.825
-171.487
-174.194
-176.863
-179.439
-181.9
-184.241
-186.459
-188.561
-190.562
-192.475
-194.317
-196.105
-197.857
-199.594
-201.338
-203.105
-204.914
-206.775
-208.692
-210.658
-212.662
-214.697
-216.767
-218.875
-221.023
-223.21
-225.447
-227.746
-230.115
-232.572
-235.057
-238.196
-240.591
-245.391
-46.2383
0.0348207
0.0284643
0.0213099
0.0165294
0.0117988
0.00781923
0.00425633
0.00099955
-0.00205595
-0.00501727
-0.00794116
0.310745
0.243812
0.107463
-0.104885
-0.408716
-0.808805
-1.29803
-1.87713
-2.55249
-3.3314
-4.22236
-5.2355
-6.38283
-7.67853
-9.13926
-10.7845
-12.637
-14.7235
-17.0752
-19.7281
-22.7218
-26.0967
-29.8873
-34.1164
-38.7877
-43.8742
-49.3058
-54.9663
-60.7101
-66.4031
-71.9491
-77.294
-82.416
-87.3134
-91.9945
-96.4715
-100.757
-104.861
-108.794
-112.563
-116.175
-119.633
-122.942
-126.101
-129.112
-131.974
-134.691
-137.267
-139.708
-142.022
-144.219
-146.311
-148.31
-150.233
-152.097
-153.922
-155.732
-157.553
-159.412
-161.335
-163.346
-165.463
-167.692
-170.032
-172.445
-174.887
-177.31
-179.673
-181.956
-184.148
-186.245
-188.253
-190.179
-192.035
-193.835
-195.593
-197.324
-199.048
-200.779
-202.533
-204.323
-206.159
-208.045
-209.982
-211.967
-213.999
-216.081
-218.22
-220.421
-222.691
-225.042
-227.487
-230.051
-232.761
-235.564
-239.12
-241.951
-247.232
-44.3859
0.0397724
0.0352707
0.0271503
0.0222199
0.0168105
0.0122124
0.00802088
0.0041711
0.000556252
-0.00292233
-0.00632594
0.590259
0.516152
0.365351
0.12971
-0.206691
-0.64703
-1.18458
-1.82111
-2.56302
-3.41758
-4.39324
-5.5
-6.7496
-8.15569
-9.73397
-11.5023
-13.4808
-15.6924
-18.1626
-20.9191
-23.9912
-27.4068
-31.187
-35.3418
-39.8644
-44.7255
-49.8685
-55.2107
-60.6533
-66.1005
-71.4755
-76.7254
-81.8194
-86.7428
-91.4911
-96.0652
-100.468
-104.705
-108.778
-112.691
-116.446
-120.046
-123.49
-126.78
-129.914
-132.894
-135.721
-138.4
-140.936
-143.337
-145.614
-147.777
-149.84
-151.818
-153.73
-155.593
-157.428
-159.259
-161.107
-162.995
-164.941
-166.954
-169.041
-171.195
-173.397
-175.619
-177.828
-179.998
-182.111
-184.156
-186.13
-188.035
-189.877
-191.664
-193.409
-195.122
-196.818
-198.511
-200.214
-201.941
-203.702
-205.507
-207.361
-209.269
-211.233
-213.257
-215.347
-217.511
-219.759
-222.102
-224.557
-227.142
-229.89
-232.861
-235.884
-239.786
-243.002
-248.819
-42.5335
0.045781
0.0413742
0.0323167
0.027037
0.0210523
0.0159264
0.0112129
0.00687444
0.00279397
-0.00111683
-0.00492807
0.953606
0.872861
0.708736
0.451732
0.0856969
-0.391129
-0.97237
-1.66062
-2.46223
-3.38436
-4.43528
-5.62469
-6.96388
-8.46575
-10.1449
-12.0174
-14.101
-16.4149
-18.9798
-21.8169
-24.9472
-28.3895
-32.1562
-36.2496
-40.6588
-45.3564
-50.2973
-55.42
-60.6532
-65.9257
-71.1757
-76.3554
-81.431
-86.3808
-91.1921
-95.8573
-100.372
-104.735
-108.944
-112.997
-116.894
-120.632
-124.211
-127.629
-130.885
-133.979
-136.912
-139.689
-142.313
-144.793
-147.139
-149.362
-151.475
-153.494
-155.435
-157.316
-159.156
-160.975
-162.793
-164.628
-166.493
-168.397
-170.344
-172.333
-174.352
-176.382
-178.402
-180.395
-182.346
-184.247
-186.096
-187.893
-189.642
-191.351
-193.029
-194.686
-196.333
-197.982
-199.645
-201.334
-203.058
-204.825
-206.645
-208.521
-210.462
-212.473
-214.563
-216.744
-219.027
-221.429
-223.971
-226.676
-229.58
-232.76
-236.022
-240.242
-243.744
-250.095
-40.8661
0.0521201
0.0468164
0.0368597
0.0310877
0.0245789
0.0190131
0.0138633
0.00912905
0.00467093
0.000409786
-0.00373626
1.40798
1.32115
1.14484
0.86852
0.475961
-0.0335314
-0.65384
-1.38811
-2.24263
-3.22437
-4.34136
-5.60294
-7.01984
-8.60416
-10.3693
-12.3296
-14.5007
-16.8988
-19.5404
-22.4417
-25.6178
-29.0809
-32.8376
-36.8862
-41.2146
-45.7987
-50.602
-55.5772
-60.6705
-65.8268
-70.9954
-76.1338
-81.2085
-86.1943
-91.0727
-95.8306
-100.458
-104.947
-109.291
-113.484
-117.522
-121.399
-125.113
-128.66
-132.036
-135.242
-138.278
-141.147
-143.853
-146.404
-148.809
-151.08
-153.23
-155.274
-157.228
-159.109
-160.935
-162.724
-164.495
-166.262
-168.034
-169.825
-171.638
-173.472
-175.323
-177.178
-179.024
-180.85
-182.646
-184.407
-186.129
-187.813
-189.464
-191.086
-192.688
-194.277
-195.864
-197.459
-199.072
-200.713
-202.391
-204.115
-205.894
-207.734
-209.645
-211.635
-213.715
-215.9
-218.204
-220.646
-223.253
-226.051
-229.076
-232.426
-235.871
-240.356
-244.097
-250.873
-39.7584
0.0577774
0.0512306
0.0406209
0.0343635
0.0273837
0.0214734
0.0159779
0.0109421
0.00619586
0.00166904
-0.00273369
1.95985
1.86749
1.68016
1.38663
0.970765
0.432453
-0.22233
-0.996994
-1.89772
-2.93132
-4.10556
-5.42943
-6.91311
-8.56786
-10.4059
-12.4403
-14.6844
-17.1522
-19.857
-22.8112
-26.0259
-29.5087
-33.2626
-37.2839
-41.5606
-46.0719
-50.788
-55.6714
-60.6796
-65.7685
-70.8958
-76.0235
-81.1192
-86.1561
-91.1124
-95.9704
-100.715
-105.335
-109.818
-114.155
-118.337
-122.357
-126.207
-129.883
-133.381
-136.698
-139.833
-142.79
-145.572
-148.185
-150.64
-152.948
-155.121
-157.174
-159.125
-160.989
-162.784
-164.526
-166.233
-167.916
-169.588
-171.26
-172.938
-174.624
-176.316
-178.006
-179.689
-181.356
-183.002
-184.623
-186.217
-187.785
-189.332
-190.86
-192.377
-193.891
-195.409
-196.94
-198.493
-200.077
-201.701
-203.374
-205.104
-206.9
-208.772
-210.731
-212.789
-214.963
-217.27
-219.731
-222.376
-225.236
-228.344
-231.816
-235.387
-240.081
-244.004
-251.103
-39.228
0.0624647
0.0544283
0.043442
0.0367837
0.029432
0.0232948
0.017555
0.0123187
0.0073774
0.00267388
-0.00190218
2.61498
2.51764
2.32042
2.01183
1.57593
1.01264
0.327932
-0.481565
-1.42194
-2.49987
-3.72297
-5.09989
-6.64028
-8.35469
-10.2544
-12.351
-14.6565
-17.1827
-19.9408
-22.9406
-26.1902
-29.6945
-33.4544
-37.4652
-41.7159
-46.1884
-50.858
-55.6943
-60.6625
-65.726
-70.8486
-75.996
-81.1372
-86.2447
-91.2942
-96.2648
-101.138
-105.897
-110.527
-115.014
-119.347
-123.514
-127.506
-131.315
-134.935
-138.362
-141.595
-144.636
-147.487
-150.155
-152.649
-154.981
-157.164
-159.213
-161.144
-162.974
-164.721
-166.401
-168.027
-169.614
-171.175
-172.723
-174.264
-175.802
-177.338
-178.87
-180.394
-181.906
-183.404
-184.886
-186.351
-187.801
-189.238
-190.666
-192.092
-193.521
-194.961
-196.42
-197.904
-199.423
-200.985
-202.598
-204.271
-206.014
-207.837
-209.753
-211.775
-213.92
-216.21
-218.665
-221.318
-224.203
-227.352
-230.891
-234.53
-239.344
-243.386
-250.636
-39.4393
0.0660499
0.0562044
0.0451999
0.038255
0.0306932
0.0244605
0.0185913
0.0132629
0.00822408
0.00343715
-0.00122458
3.37836
3.2766
3.07063
2.74913
2.29647
1.712
1.0019
0.163101
-0.81047
-1.92549
-3.18947
-4.61079
-6.19867
-7.96304
-9.91435
-12.0633
-14.4206
-16.9966
-19.8009
-22.8417
-26.125
-29.6544
-33.4295
-37.4456
-41.6926
-46.1551
-50.8124
-55.6388
-60.6053
-65.6805
-70.8325
-76.0298
-81.2426
-86.443
-91.6049
-96.7046
-101.72
-106.632
-111.42
-116.068
-120.561
-124.883
-129.023
-132.969
-136.715
-140.254
-143.584
-146.705
-149.619
-152.334
-154.858
-157.202
-159.381
-161.41
-163.305
-165.084
-166.766
-168.368
-169.896
-171.372
-172.813
-174.228
-175.627
-177.016
-178.396
-179.771
-181.138
-182.498
-183.849
-185.191
-186.524
-187.851
-189.174
-190.498
-191.826
-193.164
-194.519
-195.897
-197.305
-198.75
-200.241
-201.786
-203.394
-205.073
-206.836
-208.695
-210.665
-212.763
-215.012
-217.433
-220.061
-222.932
-226.075
-229.622
-233.272
-238.106
-242.199
-249.403
-40.4959
0.0677478
0.0563206
0.0457332
0.0387001
0.0311428
0.0249565
0.019089
0.0137811
0.00874656
0.00397196
-0.000685244
4.25427
4.14864
3.93504
3.6028
3.13657
2.53469
1.80378
0.941221
-0.0592251
-1.20433
-2.50158
-3.95915
-5.58596
-7.39152
-9.38566
-11.5784
-13.9796
-16.5986
-19.444
-22.5229
-25.8404
-29.3992
-33.1987
-37.2346
-41.4979
-45.9754
-50.6495
-55.4983
-60.4966
-65.617
-70.8305
-76.1076
-81.4194
-86.7373
-92.034
-97.2832
-102.46
-107.541
-112.503
-117.327
-121.991
-126.479
-130.776
-134.868
-138.744
-142.397
-145.823
-149.021
-151.993
-154.746
-157.288
-159.632
-161.792
-163.785
-165.627
-167.338
-168.935
-170.432
-171.852
-173.208
-174.516
-175.79
-177.04
-178.273
-179.496
-180.711
-181.921
-183.127
-184.329
-185.53
-186.729
-187.931
-189.136
-190.348
-191.573
-192.814
-194.077
-195.367
-196.691
-198.056
-199.469
-200.937
-202.469
-204.074
-205.765
-207.553
-209.454
-211.485
-213.67
-216.028
-218.597
-221.412
-224.503
-227.993
-231.599
-236.349
-240.428
-247.395
-42.4381
0.0663844
0.0548023
0.0449303
0.038112
0.0307814
0.0247886
0.0190624
0.0138863
0.00895972
0.00429258
-0.000270029
5.24621
5.13727
4.91718
4.57633
4.09959
3.48413
2.73713
1.85637
0.835288
-0.333075
-1.65624
-3.14233
-4.80006
-6.63867
-8.66766
-10.8966
-13.3349
-15.9914
-18.874
-21.9894
-25.3424
-28.9355
-32.7683
-36.8371
-41.1346
-45.6492
-50.3659
-55.2657
-60.3263
-65.5229
-70.8287
-76.2156
-81.6548
-87.1173
-92.574
-97.9965
-103.357
-108.628
-113.784
-118.8
-123.653
-128.321
-132.787
-137.033
-141.046
-144.817
-148.34
-151.612
-154.636
-157.418
-159.967
-162.297
-164.423
-166.362
-168.133
-169.757
-171.25
-172.63
-173.919
-175.136
-176.298
-177.418
-178.51
-179.581
-180.64
-181.692
-182.742
-183.791
-184.843
-185.899
-186.961
-188.033
-189.116
-190.214
-191.329
-192.468
-193.632
-194.829
-196.063
-197.339
-198.665
-200.048
-201.496
-203.017
-204.623
-206.325
-208.14
-210.084
-212.18
-214.447
-216.923
-219.639
-222.629
-226.006
-229.51
-234.088
-238.093
-244.68
-45.1834
0.0619101
0.0519189
0.0428665
0.0365849
0.0296526
0.0239952
0.0185421
0.0136005
0.00888377
0.00441485
3.44692e-05
6.35694
6.24526
6.01981
5.67242
5.18811
4.56308
3.80492
2.91152
1.87599
0.691077
-0.650853
-2.15794
-3.83892
-5.7029
-7.75929
-10.0175
-12.4868
-15.1758
-18.0925
-21.2434
-24.6335
-28.2656
-32.1401
-36.2542
-40.6019
-45.1737
-49.9563
-54.9332
-60.0843
-65.3867
-70.8151
-76.342
-81.9386
-87.5749
-93.2201
-98.8432
-104.413
-109.9
-115.272
-120.503
-125.564
-130.431
-135.08
-139.492
-143.651
-147.545
-151.166
-154.511
-157.581
-160.383
-162.927
-165.227
-167.3
-169.166
-170.847
-172.363
-173.729
-174.97
-176.11
-177.171
-178.171
-179.124
-180.045
-180.945
-181.832
-182.715
-183.599
-184.487
-185.385
-186.293
-187.215
-188.153
-189.11
-190.088
-191.091
-192.121
-193.183
-194.28
-195.417
-196.599
-197.831
-199.121
-200.474
-201.901
-203.41
-205.013
-206.725
-208.561
-210.544
-212.692
-215.04
-217.619
-220.462
-223.672
-227.015
-231.349
-235.231
-241.358
-48.5513
0.0559622
0.0482366
0.0398116
0.0342843
0.0278393
0.0226401
0.0175727
0.0129545
0.00854372
0.00435588
0.000241272
7.58841
7.47457
7.24497
6.89296
6.40398
5.7737
5.00953
4.10912
3.06531
1.87047
0.516816
-1.00395
-2.70067
-4.58256
-6.65914
-8.93997
-11.4344
-14.1514
-17.0991
-20.2846
-23.7133
-27.389
-31.3128
-35.4833
-39.896
-44.5431
-49.4133
-54.4918
-59.7604
-65.1976
-70.7789
-76.477
-82.2627
-88.1045
-93.9698
-99.8246
-105.635
-111.365
-116.983
-122.454
-127.748
-132.834
-137.685
-142.279
-146.596
-150.619
-154.341
-157.756
-160.866
-163.676
-166.2
-168.453
-170.454
-172.226
-173.792
-175.17
-176.387
-177.468
-178.44
-179.325
-180.144
-180.914
-181.651
-182.367
-183.074
-183.78
-184.491
-185.214
-185.952
-186.708
-187.485
-188.286
-189.113
-189.968
-190.854
-191.772
-192.725
-193.718
-194.753
-195.834
-196.966
-198.155
-199.407
-200.728
-202.129
-203.62
-205.212
-206.922
-208.769
-210.77
-212.958
-215.361
-218.012
-221.006
-224.132
-228.163
-231.883
-237.517
-52.3523
0.050363
0.0441377
0.0361069
0.0313959
0.0254462
0.0208041
0.0162091
0.0119868
0.00796877
0.00413466
0.000362822
8.94174
8.82636
8.59387
8.23896
7.74836
7.1176
6.35279
5.45109
4.40512
3.20694
1.84855
0.321425
-1.38355
-3.2759
-5.36546
-7.66218
-10.1759
-12.9162
-15.8918
-19.1106
-22.579
-26.3019
-30.2817
-34.5187
-39.0099
-43.7493
-48.7273
-53.931
-59.3435
-64.9443
-70.7094
-76.6115
-82.6202
-88.7025
-94.823
-100.945
-107.03
-113.039
-118.935
-124.678
-130.232
-135.563
-140.64
-145.433
-149.921
-154.083
-157.909
-161.392
-164.534
-167.341
-169.828
-172.012
-173.918
-175.57
-176.998
-178.21
-179.248
-180.143
-180.921
-181.608
-182.226
-182.795
-183.332
-183.852
-184.366
-184.885
-185.417
-185.967
-186.54
-187.139
-187.768
-188.428
-189.122
-189.85
-190.614
-191.416
-192.258
-193.142
-194.07
-195.046
-196.072
-197.153
-198.295
-199.503
-200.786
-202.151
-203.61
-205.175
-206.865
-208.694
-210.692
-212.883
-215.298
-218.028
-220.881
-224.548
-228.066
-233.151
-56.5512
0.0458346
0.0395495
0.0320113
0.0279589
0.0225744
0.0185561
0.0144937
0.0107447
0.00719004
0.00377201
0.000410949
10.4172
10.3009
10.0668
9.71055
9.22186
8.59588
7.83588
6.9387
5.89669
4.70181
3.34576
1.81967
0.114061
-1.78109
-3.87616
-6.18178
-8.70857
-11.4669
-14.4666
-17.7168
-21.2252
-24.998
-29.0397
-33.352
-37.934
-42.7814
-47.8867
-53.2385
-58.821
-64.6149
-70.5961
-76.7369
-83.0055
-89.3666
-95.7821
-102.211
-108.611
-114.939
-121.15
-127.201
-133.05
-138.658
-143.986
-149.002
-153.677
-157.989
-161.923
-165.472
-168.637
-171.425
-173.855
-175.947
-177.729
-179.231
-180.472
-181.496
-182.33
-183.01
-183.567
-184.03
-184.424
-184.771
-185.091
-185.399
-185.708
-186.029
-186.372
-186.742
-187.144
-187.582
-188.058
-188.574
-189.13
-189.728
-190.369
-191.052
-191.779
-192.551
-193.369
-194.234
-195.15
-196.118
-197.144
-198.231
-199.386
-200.615
-201.927
-203.333
-204.847
-206.482
-208.262
-210.206
-212.343
-214.759
-217.286
-220.511
-223.753
-228.159
-61.3785
0.0416873
0.033926
0.02749
0.0238913
0.0193028
0.0159458
0.0124655
0.00927528
0.00624596
0.00329318
0.000397878
12.0143
11.8977
11.6631
11.3071
10.8243
10.2089
9.45923
8.5724
7.54056
6.35573
5.00929
3.49193
1.79364
-0.0962288
-2.18886
-4.49582
-7.02873
-9.79917
-12.8184
-16.097
-19.6444
-23.4689
-27.5768
-31.972
-36.6558
-41.6261
-46.8774
-52.3998
-58.1791
-64.1964
-70.4279
-76.8448
-83.4136
-90.0963
-96.8512
-103.633
-110.394
-117.086
-123.657
-130.06
-136.244
-142.164
-147.776
-153.041
-157.925
-162.4
-166.448
-170.059
-173.235
-175.987
-178.334
-180.304
-181.929
-183.249
-184.274
-185.063
-185.654
-186.084
-186.389
-186.599
-186.744
-186.846
-186.928
-187.007
-187.096
-187.209
-187.352
-187.535
-187.759
-188.031
-188.35
-188.717
-189.134
-189.6
-190.115
-190.677
-191.287
-191.944
-192.649
-193.401
-194.202
-195.054
-195.958
-196.918
-197.938
-199.022
-200.178
-201.412
-202.735
-204.155
-205.694
-207.361
-209.178
-211.208
-213.406
-216.074
-218.904
-222.458
-67.1613
0.0357042
0.0268692
0.0222295
0.019179
0.0156478
0.0130361
0.0102035
0.00764203
0.0051688
0.00272246
0.000334031
13.7314
13.6151
13.3813
13.0272
12.5549
11.9557
11.2219
10.3514
9.33618
8.16845
6.83933
5.33884
3.65636
1.78052
-0.300997
-2.60089
-5.13208
-7.90762
-10.9405
-14.2432
-17.8274
-21.7036
-25.8806
-30.3649
-35.1604
-40.2674
-45.6827
-51.3983
-57.4016
-63.6742
-70.1923
-76.9261
-83.8398
-90.8922
-98.0372
-105.224
-112.4
-119.508
-126.493
-133.296
-139.863
-146.139
-152.074
-157.62
-162.736
-167.39
-171.558
-175.228
-178.402
-181.092
-183.326
-185.136
-186.564
-187.637
-188.414
-188.932
-189.24
-189.382
-189.398
-189.323
-189.189
-189.021
-188.843
-188.674
-188.528
-188.418
-188.353
-188.338
-188.38
-188.479
-188.637
-188.854
-189.129
-189.461
-189.848
-190.288
-190.779
-191.321
-191.91
-192.548
-193.232
-193.964
-194.743
-195.572
-196.452
-197.385
-198.376
-199.428
-200.549
-201.742
-203.021
-204.391
-205.864
-207.484
-209.237
-211.269
-213.532
-216.048
-74.2284
0.0256208
0.0183487
0.016087
0.0139755
0.0116558
0.00993082
0.00778443
0.00590832
0.00400202
0.00209171
0.000229506
15.5659
15.4509
15.2191
14.8692
14.4117
13.8346
13.1212
12.2739
11.2818
10.1387
8.83525
7.36038
5.70292
3.85085
1.79003
-0.493367
-3.01375
-5.78604
-8.82523
-12.1462
-15.7632
-19.6894
-23.9367
-28.5145
-33.4299
-38.6863
-44.2831
-50.2146
-56.4699
-63.0316
-69.8758
-76.9712
-84.2797
-91.7561
-99.349
-107.002
-114.654
-122.241
-129.699
-136.963
-143.968
-150.652
-156.954
-162.82
-168.198
-173.05
-177.346
-181.069
-184.222
-186.821
-188.901
-190.507
-191.689
-192.479
-192.941
-193.134
-193.109
-192.918
-192.604
-192.207
-191.761
-191.295
-190.833
-190.395
-189.997
-189.65
-189.365
-189.145
-188.996
-188.918
-188.912
-188.976
-189.108
-189.304
-189.563
-189.881
-190.254
-190.679
-191.154
-191.675
-192.242
-192.853
-193.506
-194.2
-194.937
-195.716
-196.537
-197.403
-198.315
-199.272
-200.282
-201.341
-202.452
-203.634
-204.878
-206.226
-207.724
-209.156
-82.5301
0.0114503
0.00974681
0.00864677
0.0085883
0.00742598
0.00676913
0.00530543
0.00412652
0.00279015
0.00142532
9.34446e-05
17.5143
17.401
17.1715
16.8328
16.394
15.8407
15.1546
14.3349
13.3741
12.2643
10.996
9.55572
7.93322
6.1162
4.08662
1.83046
-0.668628
-3.42766
-6.46401
-9.79535
-13.439
-17.4115
-21.728
-26.402
-31.4439
-36.861
-42.6559
-48.826
-55.3624
-62.2492
-69.4623
-76.9693
-84.7289
-92.6913
-100.799
-108.987
-117.187
-125.326
-133.329
-141.122
-148.631
-155.784
-162.51
-168.741
-174.418
-179.491
-183.923
-187.692
-190.799
-193.267
-195.143
-196.486
-197.347
-197.793
-197.885
-197.693
-197.281
-196.704
-196.014
-195.254
-194.46
-193.664
-192.892
-192.163
-191.494
-190.896
-190.379
-189.946
-189.6
-189.341
-189.167
-189.076
-189.064
-189.126
-189.257
-189.453
-189.708
-190.018
-190.379
-190.786
-191.235
-191.725
-192.251
-192.812
-193.405
-194.028
-194.68
-195.357
-196.059
-196.779
-197.518
-198.263
-199.008
-199.743
-200.45
-201.132
-201.718
-202.131
-91.4728
-0.00158393
0.00225887
0.00106765
0.0037909
0.00323737
0.00371551
0.00285798
0.00236428
0.00157867
0.000753891
-6.60847e-05
19.5719
19.4604
19.2341
18.9123
18.4979
17.9702
17.3161
16.5319
15.6103
14.5424
13.3176
11.9234
10.3462
8.5785
6.59056
4.3741
1.90851
-0.82532
-3.84756
-7.1791
-10.8409
-14.8532
-19.2356
-24.0056
-29.1786
-34.766
-40.7748
-47.2061
-54.054
-61.3042
-68.9333
-76.9076
-85.1823
-93.7022
-102.402
-111.209
-120.041
-128.816
-137.448
-145.852
-153.944
-161.639
-168.852
-175.505
-181.524
-186.848
-191.427
-195.232
-198.259
-200.542
-202.144
-203.151
-203.625
-203.64
-203.285
-202.64
-201.775
-200.754
-199.634
-198.464
-197.283
-196.123
-195.01
-193.967
-193.008
-192.144
-191.383
-190.727
-190.179
-189.734
-189.392
-189.145
-188.989
-188.918
-188.923
-189
-189.14
-189.337
-189.586
-189.88
-190.215
-190.586
-190.987
-191.416
-191.867
-192.336
-192.82
-193.312
-193.807
-194.296
-194.771
-195.212
-195.604
-195.91
-196.091
-196.199
-195.839
-195.443
-100.209
-0.0125462
-0.00310286
-0.00398883
-9.50468e-05
-0.00050511
0.000892954
0.000575278
0.000682039
0.000421012
9.99316e-05
-0.0002406
21.7328
21.6231
21.4037
21.1022
20.7155
20.2173
19.6007
18.8591
17.9848
16.9683
15.7983
14.4621
12.9451
11.2319
9.30258
7.14152
4.72248
2.02837
-0.966124
-4.28493
-7.95343
-11.9962
-16.4379
-21.3012
-26.6069
-32.3721
-38.6091
-45.324
-52.5146
-60.1697
-68.2668
-76.771
-85.6342
-94.7948
-104.178
-113.699
-123.265
-132.776
-142.136
-151.248
-160.017
-168.342
-176.124
-183.265
-189.681
-195.292
-200.033
-203.86
-206.764
-208.786
-210.022
-210.59
-210.577
-210.072
-209.183
-208.001
-206.607
-205.073
-203.466
-201.835
-200.222
-198.66
-197.177
-195.793
-194.524
-193.378
-192.362
-191.476
-190.719
-190.087
-189.575
-189.174
-188.876
-188.674
-188.557
-188.518
-188.546
-188.635
-188.776
-188.961
-189.185
-189.44
-189.72
-190.02
-190.333
-190.653
-190.974
-191.288
-191.585
-191.853
-192.081
-192.24
-192.31
-192.234
-191.937
-191.613
-190.346
-189.445
-108.031
-0.0222834
-0.00724387
-0.0102618
-0.00368263
-0.00397982
-0.00164821
-0.00150947
-0.000862357
-0.000633953
-0.000504667
-0.000416656
23.9905
23.8825
23.6756
23.3963
23.0388
22.5757
22.0023
21.3105
20.492
19.5366
18.4325
17.166
15.7215
14.0814
12.2257
10.1329
7.77883
5.14216
2.18994
-1.09933
-4.76025
-8.82081
-13.3116
-18.2617
-23.6985
-29.6462
-36.1238
-43.1437
-50.7094
-58.8136
-67.4359
-76.5412
-86.0776
-95.9762
-106.151
-116.503
-126.922
-137.291
-147.498
-157.435
-167.003
-176.08
-184.534
-192.246
-199.12
-205.06
-209.979
-213.809
-216.52
-218.155
-218.862
-218.877
-218.255
-217.129
-215.611
-213.804
-211.796
-209.672
-207.509
-205.36
-203.267
-201.261
-199.373
-197.623
-196.023
-194.58
-193.298
-192.175
-191.206
-190.386
-189.704
-189.151
-188.716
-188.388
-188.154
-188.004
-187.926
-187.912
-187.95
-188.032
-188.149
-188.293
-188.457
-188.633
-188.814
-188.992
-189.158
-189.303
-189.416
-189.48
-189.482
-189.39
-189.185
-188.799
-188.088
-187.508
-185.452
-184.319
-114.404
-0.0298779
-0.0108343
-0.0142097
-0.00675362
-0.00675414
-0.00389181
-0.00328067
-0.00221872
-0.00156192
-0.00104341
-0.000586371
26.3364
26.2302
26.0403
25.7871
25.4612
25.038
24.5137
23.879
23.125
22.2408
21.214
20.0299
18.6718
17.1208
15.3554
13.3517
11.0831
8.52061
5.63225
2.3934
-1.24437
-5.30531
-9.83107
-14.8572
-20.4194
-26.5506
-33.2784
-40.6234
-48.5969
-57.1973
-66.4083
-76.1953
-86.5034
-97.2552
-108.352
-119.676
-131.095
-142.477
-153.7
-164.631
-175.178
-185.179
-194.431
-202.773
-210.127
-216.405
-221.506
-225.348
-227.854
-229.003
-228.894
-228.244
-226.826
-224.885
-222.571
-220.001
-217.27
-214.483
-211.719
-209.015
-206.404
-203.911
-201.582
-199.437
-197.483
-195.728
-194.17
-192.804
-191.622
-190.613
-189.766
-189.066
-188.499
-188.051
-187.707
-187.454
-187.278
-187.167
-187.109
-187.094
-187.111
-187.151
-187.205
-187.265
-187.321
-187.364
-187.385
-187.373
-187.316
-187.197
-187
-186.694
-186.26
-185.642
-184.618
-184.04
-181.167
-180.142
-119.168
-0.031999
-0.0136579
-0.0168055
-0.00914558
-0.00880126
-0.00572148
-0.00468452
-0.00334407
-0.0023374
-0.00149594
-0.000735495
28.7604
28.6573
28.4875
28.2639
27.973
27.5952
27.1261
26.556
25.8753
25.0727
24.1349
23.0467
21.7902
20.3451
18.6882
16.7935
14.6318
12.1705
9.37398
6.20395
2.61655
-1.42726
-5.96841
-11.0552
-16.7321
-23.0431
-30.0267
-37.7146
-46.128
-55.2745
-65.1439
-75.7044
-86.899
-98.642
-110.818
-123.294
-135.929
-148.566
-161.077
-173.224
-184.862
-195.873
-206.046
-215.201
-223.177
-229.852
-235.156
-239.012
-241.303
-241.908
-240.971
-238.962
-236.468
-233.499
-230.199
-226.713
-223.142
-219.572
-216.081
-212.726
-209.527
-206.521
-203.744
-201.199
-198.88
-196.798
-194.955
-193.341
-191.945
-190.752
-189.745
-188.905
-188.215
-187.656
-187.211
-186.864
-186.599
-186.4
-186.255
-186.15
-186.075
-186.019
-185.97
-185.921
-185.861
-185.78
-185.667
-185.512
-185.301
-185.02
-184.65
-184.166
-183.548
-182.754
-181.512
-180.773
-177.92
-176.896
-122.317
-0.0315863
-0.0153991
-0.0180966
-0.0108415
-0.0101914
-0.00713417
-0.00575636
-0.00423942
-0.00297435
-0.00187373
-0.000866423
31.2521
31.154
31.0061
30.8147
30.5633
30.2363
29.8288
29.3309
28.7326
28.0222
27.1858
26.2074
25.0682
23.7468
22.2183
20.4545
18.4233
16.0889
13.4108
10.3446
6.84021
2.84493
-1.68806
-6.82052
-12.5944
-19.0765
-26.3165
-34.3611
-43.2454
-52.9894
-63.5931