/*--------------------------------*- C++ -*----------------------------------*\
| =========                 |                                                 |
| \\      /  F ield         | OpenFOAM: The Open Source CFD Toolbox           |
|  \\    /   O peration     | Version:  v2106                                 |
|   \\  /    A nd           | Website:  www.openfoam.com                      |
|    \\/     M anipulation  |                                                 |
\*---------------------------------------------------------------------------*/
FoamFile
{
    version     2.0;
    format      ascii;
    arch        "LSB;label=32;scalar=64";
    class       surfaceScalarField;
    location    "1.7";
    object      phi;
}
// * * * * * * * * * * * * * * * * * * * * * * * * * * * * * * * * * * * * * //

dimensions      [0 3 -1 0 0 0 0];

oriented        oriented;

internalField   nonuniform List<scalar> 
59425
(
-6.80282e-10
-1.09729e-05
1.30766e-09
-1.11172e-05
6.62346e-09
-1.11021e-05
1.45554e-08
-1.10637e-05
2.42636e-08
-1.1013e-05
3.50233e-08
-1.09515e-05
4.63211e-08
-1.08769e-05
5.84285e-08
-1.07866e-05
7.218e-08
-1.06799e-05
8.80198e-08
-1.05561e-05
1.06326e-07
-1.04138e-05
1.27491e-07
-1.0251e-05
1.51945e-07
-1.00651e-05
1.80191e-07
-9.853e-06
2.12846e-07
-9.61118e-06
2.50725e-07
-9.33529e-06
2.94999e-07
-9.02007e-06
3.47503e-07
-8.65895e-06
4.11434e-07
-8.24362e-06
4.93026e-07
-7.76355e-06
6.05743e-07
-7.20586e-06
7.80451e-07
-6.55626e-06
1.0842e-06
-5.79841e-06
1.63685e-06
-4.89423e-06
2.63073e-06
-3.7532e-06
4.41012e-06
-2.21065e-06
7.14243e-06
-3.02012e-07
8.92228e-06
-9.70598e-07
9.94151e-06
-2.26177e-06
1.06194e-05
-3.17919e-06
1.11093e-05
-3.87137e-06
1.14923e-05
-4.40426e-06
1.181e-05
-4.8206e-06
1.20817e-05
-5.1518e-06
1.23208e-05
-5.41393e-06
1.25327e-05
-5.62302e-06
1.27235e-05
-5.78728e-06
1.28866e-05
-5.92273e-06
1.30189e-05
-6.03082e-06
1.31243e-05
-6.10877e-06
1.31977e-05
-6.16251e-06
1.32333e-05
-6.19284e-06
1.32389e-05
-6.19603e-06
1.32173e-05
-6.17633e-06
1.31645e-05
-6.13779e-06
1.3086e-05
-6.06953e-06
1.29871e-05
-5.97441e-06
1.28611e-05
-5.86634e-06
1.2703e-05
-5.74643e-06
1.25153e-05
-5.60754e-06
1.22993e-05
-5.44987e-06
1.20509e-05
-5.27784e-06
1.17711e-05
-5.08684e-06
1.14621e-05
-4.87293e-06
1.11238e-05
-4.63605e-06
1.07571e-05
-4.37295e-06
1.03601e-05
-4.08177e-06
9.93818e-06
-3.75031e-06
9.49974e-06
-3.36889e-06
9.06378e-06
-2.92236e-06
8.67534e-06
-2.38711e-06
8.42451e-06
-1.76189e-06
8.44408e-06
-9.87393e-07
8.88436e-06
1.109e-07
9.55065e-06
7.94089e-07
9.5156e-06
3.00593e-07
9.24453e-06
-3.34511e-08
9.20126e-06
2.45637e-07
9.2453e-06
5.22216e-07
8.98678e-06
1.88712e-07
8.68246e-06
9.42853e-08
8.47415e-06
2.22662e-07
8.21117e-06
1.60989e-07
7.88407e-06
4.75138e-08
7.52814e-06
-2.3745e-08
7.13996e-06
-7.29556e-08
6.74159e-06
-9.22066e-08
6.42177e-06
-1.58757e-08
5.9323e-06
-1.71957e-07
5.62492e-06
7.36097e-08
5.46404e-06
3.79918e-07
5.37793e-06
2.75495e-07
5.46151e-06
5.52514e-07
4.97914e-06
-2.20866e-07
4.38616e-06
-4.92296e-07
3.66437e-06
-6.94992e-07
3.42859e-06
-1.67738e-07
3.37668e-06
2.62033e-07
3.19672e-06
7.86645e-09
3.21261e-06
1.47276e-07
3.35405e-06
2.23017e-07
3.40979e-06
-6.02054e-08
3.67131e-06
-2.01708e-07
4.26556e-06
-2.43522e-07
5.23984e-06
-6.14699e-07
6.68647e-06
-1.22225e-06
9.38988e-06
-2.3405e-06
1.15088e-05
-5.95052e-06
-1.60702e-05
-3.38797e-05
-2.81063e-05
-2.59907e-05
-3.14489e-05
-3.57028e-05
-2.94738e-05
-1.99079e-05
-2.94249e-05
-1.94367e-05
-2.75188e-05
-1.21478e-05
-2.6848e-05
-1.04927e-05
-2.53252e-05
-6.51945e-06
-2.43164e-05
-4.68959e-06
-2.29172e-05
-2.33235e-06
-2.23243e-05
-1.67057e-06
-6.08685e-07
1.22291e-08
-1.09851e-05
2.52113e-08
-1.11302e-05
3.98231e-08
-1.11167e-05
5.62849e-08
-1.10801e-05
7.48533e-08
-1.10315e-05
9.55415e-08
-1.09722e-05
1.18597e-07
-1.08999e-05
1.44464e-07
-1.08125e-05
1.73898e-07
-1.07094e-05
2.07456e-07
-1.05897e-05
2.45725e-07
-1.04521e-05
2.89388e-07
-1.02947e-05
3.3928e-07
-1.0115e-05
3.9644e-07
-9.91016e-06
4.62206e-07
-9.67695e-06
5.38368e-07
-9.41145e-06
6.27412e-07
-9.10911e-06
7.32923e-07
-8.76446e-06
8.60242e-07
-8.37094e-06
1.01738e-06
-7.92069e-06
1.21589e-06
-7.40436e-06
1.47003e-06
-6.8104e-06
1.79415e-06
-6.12253e-06
2.2186e-06
-5.3187e-06
2.87296e-06
-4.40756e-06
4.1429e-06
-3.48056e-06
6.58626e-06
-2.7453e-06
8.45265e-06
-2.83695e-06
9.57623e-06
-3.38534e-06
1.03426e-05
-3.94555e-06
1.09085e-05
-4.43728e-06
1.13541e-05
-4.84988e-06
1.17228e-05
-5.18933e-06
1.20363e-05
-5.4653e-06
1.23089e-05
-5.68643e-06
1.25476e-05
-5.86181e-06
1.27583e-05
-5.99789e-06
1.2938e-05
-6.10243e-06
1.30851e-05
-6.17791e-06
1.3201e-05
-6.22475e-06
1.32832e-05
-6.24463e-06
1.33304e-05
-6.24011e-06
1.335e-05
-6.21558e-06
1.33432e-05
-6.16951e-06
1.33074e-05
-6.10207e-06
1.32462e-05
-6.00825e-06
1.31627e-05
-5.89091e-06
1.30532e-05
-5.75691e-06
1.29139e-05
-5.60703e-06
1.27454e-05
-5.43911e-06
1.25491e-05
-5.25359e-06
1.23229e-05
-5.05162e-06
1.20675e-05
-4.83142e-06
1.17855e-05
-4.59094e-06
1.14782e-05
-4.32875e-06
1.11475e-05
-4.04227e-06
1.07936e-05
-3.72786e-06
1.0422e-05
-3.37865e-06
1.00401e-05
-2.98701e-06
9.66148e-06
-2.54376e-06
9.3134e-06
-2.03903e-06
9.02023e-06
-1.46873e-06
8.85813e-06
-8.25291e-07
9.18896e-06
-2.19915e-07
9.78168e-06
2.01388e-07
9.8437e-06
2.38582e-07
9.57563e-06
2.34627e-07
9.47359e-06
3.47671e-07
9.53362e-06
4.62187e-07
9.30903e-06
4.13309e-07
9.01188e-06
3.91434e-07
8.81775e-06
4.16788e-07
8.5775e-06
4.01236e-07
8.26033e-06
3.64687e-07
7.90327e-06
3.3331e-07
7.52179e-06
3.08523e-07
7.12901e-06
3.0057e-07
6.79256e-06
3.20575e-07
6.30049e-06
3.20111e-07
5.96468e-06
4.09419e-07
5.80125e-06
5.43349e-07
5.57524e-06
5.0151e-07
5.57387e-06
5.53887e-07
5.08942e-06
2.63585e-07
4.50056e-06
9.6557e-08
3.76935e-06
3.62221e-08
3.42758e-06
1.74027e-07
3.34013e-06
3.49484e-07
3.07455e-06
2.73454e-07
2.94583e-06
2.75995e-07
2.95803e-06
2.10812e-07
2.88505e-06
1.27793e-08
2.93871e-06
-2.55366e-07
3.243e-06
-5.47813e-07
3.84465e-06
-1.21634e-06
4.77152e-06
-2.14913e-06
6.80464e-06
-4.37362e-06
8.42507e-06
-7.57095e-06
-1.32581e-05
-1.21966e-05
-2.41115e-05
-1.51374e-05
-2.59467e-05
-3.38676e-05
-2.45462e-05
-2.13084e-05
-2.49206e-05
-1.90622e-05
-2.40218e-05
-1.30467e-05
-2.39008e-05
-1.06137e-05
-2.29708e-05
-7.44945e-06
-2.22974e-05
-5.36297e-06
-2.12277e-05
-3.40202e-06
-2.08119e-05
-2.08637e-06
-9.05334e-07
2.43665e-08
-1.10095e-05
4.92574e-08
-1.11551e-05
7.57172e-08
-1.11432e-05
1.04274e-07
-1.11087e-05
1.35659e-07
-1.10629e-05
1.70178e-07
-1.10067e-05
2.08266e-07
-1.0938e-05
2.5047e-07
-1.08547e-05
2.97632e-07
-1.07565e-05
3.50558e-07
-1.06426e-05
4.10109e-07
-1.05117e-05
4.77291e-07
-1.03618e-05
5.53327e-07
-1.0191e-05
6.39746e-07
-9.99658e-06
7.38494e-07
-9.77569e-06
8.52121e-07
-9.52508e-06
9.84051e-07
-9.24104e-06
1.13901e-06
-8.91942e-06
1.32368e-06
-8.5556e-06
1.54764e-06
-8.14465e-06
1.825e-06
-7.68172e-06
2.1775e-06
-7.1629e-06
2.64261e-06
-6.58765e-06
3.29048e-06
-5.96655e-06
4.21301e-06
-5.33e-06
5.44389e-06
-4.71142e-06
6.89453e-06
-4.19592e-06
8.14375e-06
-4.08618e-06
9.10577e-06
-4.34736e-06
9.85796e-06
-4.69775e-06
1.04638e-05
-5.0431e-06
1.09661e-05
-5.3522e-06
1.13928e-05
-5.61607e-06
1.1762e-05
-5.83447e-06
1.20855e-05
-6.00994e-06
1.23703e-05
-6.14662e-06
1.26208e-05
-6.24832e-06
1.28376e-05
-6.31927e-06
1.30212e-05
-6.3615e-06
1.31724e-05
-6.37595e-06
1.32915e-05
-6.36379e-06
1.3378e-05
-6.32654e-06
1.34298e-05
-6.26739e-06
1.34484e-05
-6.18814e-06
1.34351e-05
-6.08879e-06
1.33934e-05
-5.96655e-06
1.33251e-05
-5.82259e-06
1.32287e-05
-5.66051e-06
1.3103e-05
-5.48132e-06
1.29486e-05
-5.2847e-06
1.27661e-05
-5.07112e-06
1.25556e-05
-4.84109e-06
1.2318e-05
-4.59384e-06
1.20552e-05
-4.32812e-06
1.17691e-05
-4.04271e-06
1.14627e-05
-3.73582e-06
1.11397e-05
-3.4049e-06
1.08072e-05
-3.04617e-06
1.0476e-05
-2.6558e-06
1.01629e-05
-2.23061e-06
9.89361e-06
-1.76977e-06
9.70469e-06
-1.27979e-06
9.66184e-06
-7.82411e-07
9.73523e-06
-2.93303e-07
9.83989e-06
9.67344e-08
9.81537e-06
2.63105e-07
9.69547e-06
3.54523e-07
9.5754e-06
4.67739e-07
9.46419e-06
5.73393e-07
9.26839e-06
6.09108e-07
9.03139e-06
6.28437e-07
8.78769e-06
6.60478e-07
8.51574e-06
6.73192e-07
8.21163e-06
6.68794e-07
7.88504e-06
6.599e-07
7.54132e-06
6.52238e-07
7.18656e-06
6.55332e-07
6.83053e-06
6.76606e-07
6.4582e-06
6.92441e-07
6.11859e-06
7.49023e-07
5.83816e-06
8.23785e-07
5.5505e-06
7.89172e-07
5.31475e-06
7.89635e-07
4.92354e-06
6.54796e-07
4.48595e-06
5.34145e-07
4.04204e-06
4.80129e-07
3.6926e-06
5.2347e-07
3.45829e-06
5.83792e-07
3.22269e-06
5.09056e-07
3.0609e-06
4.37781e-07
2.95148e-06
3.20232e-07
2.84146e-06
1.22801e-07
2.77749e-06
-1.91391e-07
2.77654e-06
-5.46864e-07
2.78991e-06
-1.22971e-06
2.77061e-06
-2.12982e-06
2.58563e-06
-4.18864e-06
1.76377e-06
-6.74909e-06
-9.41804e-07
-9.49098e-06
-6.19882e-06
-9.88037e-06
-1.48599e-05
-2.52065e-05
-1.7546e-05
-1.86222e-05
-1.99403e-05
-1.6668e-05
-2.04732e-05
-1.25138e-05
-2.09162e-05
-1.01707e-05
-2.07821e-05
-7.58351e-06
-2.05686e-05
-5.57644e-06
-2.01979e-05
-3.77273e-06
-1.99356e-05
-2.34875e-06
-1.09001e-06
3.54896e-08
-1.1045e-05
7.15772e-08
-1.11911e-05
1.09558e-07
-1.11811e-05
1.50154e-07
-1.11493e-05
1.94044e-07
-1.11068e-05
2.41528e-07
-1.10542e-05
2.93327e-07
-1.09898e-05
3.50502e-07
-1.09119e-05
4.1398e-07
-1.082e-05
4.8473e-07
-1.07134e-05
5.63839e-07
-1.05908e-05
6.52589e-07
-1.04506e-05
7.52527e-07
-1.02909e-05
8.65555e-07
-1.01096e-05
9.94046e-07
-9.90419e-06
1.14102e-06
-9.67206e-06
1.31041e-06
-9.41043e-06
1.5074e-06
-9.11641e-06
1.73896e-06
-8.78715e-06
2.01455e-06
-8.42024e-06
2.34709e-06
-8.01427e-06
2.75424e-06
-7.57005e-06
3.25934e-06
-7.09277e-06
3.88825e-06
-6.59548e-06
4.66068e-06
-6.1024e-06
5.59754e-06
-5.64829e-06
6.7078e-06
-5.30618e-06
7.82031e-06
-5.19871e-06
8.76796e-06
-5.29502e-06
9.55147e-06
-5.48127e-06
1.02021e-05
-5.69369e-06
1.07504e-05
-5.90049e-06
1.12202e-05
-6.08589e-06
1.16284e-05
-6.24265e-06
1.19864e-05
-6.36802e-06
1.23018e-05
-6.46195e-06
1.2579e-05
-6.52555e-06
1.28202e-05
-6.56049e-06
1.30267e-05
-6.56793e-06
1.31994e-05
-6.54868e-06
1.33391e-05
-6.50353e-06
1.34461e-05
-6.4335e-06
1.35193e-05
-6.34062e-06
1.35587e-05
-6.22755e-06
1.35654e-05
-6.09547e-06
1.35419e-05
-5.94308e-06
1.34898e-05
-5.77046e-06
1.34088e-05
-5.57949e-06
1.32988e-05
-5.37136e-06
1.31606e-05
-5.14648e-06
1.29949e-05
-4.90544e-06
1.28025e-05
-4.64871e-06
1.25848e-05
-4.37611e-06
1.23438e-05
-4.08713e-06
1.20822e-05
-3.78109e-06
1.18034e-05
-3.45705e-06
1.15122e-05
-3.11367e-06
1.12153e-05
-2.74929e-06
1.09222e-05
-2.36266e-06
1.06453e-05
-1.95372e-06
1.04005e-05
-1.52499e-06
1.02047e-05
-1.08401e-06
1.00685e-05
-6.46152e-07
1.00116e-05
-2.36478e-07
1.00215e-05
8.68739e-08
9.96668e-06
3.17898e-07
9.8404e-06
4.80804e-07
9.68834e-06
6.19795e-07
9.52678e-06
7.3495e-07
9.32388e-06
8.12003e-07
9.08423e-06
8.68082e-07
8.82955e-06
9.15165e-07
8.55424e-06
9.48497e-07
8.25424e-06
9.68793e-07
7.93299e-06
9.8115e-07
7.59408e-06
9.91146e-07
7.24316e-06
1.00625e-06
6.88945e-06
1.03031e-06
6.52409e-06
1.0578e-06
6.18048e-06
1.09263e-06
5.87957e-06
1.12469e-06
5.55036e-06
1.11838e-06
5.24309e-06
1.0969e-06
4.87085e-06
1.02704e-06
4.44991e-06
9.55076e-07
4.0203e-06
9.09741e-07
3.65234e-06
8.91429e-07
3.35886e-06
8.77277e-07
3.06358e-06
8.04335e-07
2.8012e-06
7.00153e-07
2.58182e-06
5.39615e-07
2.39539e-06
3.09232e-07
2.24271e-06
-3.87099e-08
2.1412e-06
-4.45355e-07
2.03228e-06
-1.1208e-06
1.9037e-06
-2.00124e-06
1.52297e-06
-3.80791e-06
5.69743e-07
-5.79587e-06
-1.80017e-06
-7.12106e-06
-4.80512e-06
-6.87543e-06
-1.13965e-05
-1.86151e-05
-1.44139e-05
-1.56048e-05
-1.67073e-05
-1.43746e-05
-1.77722e-05
-1.1449e-05
-1.84998e-05
-9.44309e-06
-1.87222e-05
-7.36111e-06
-1.87364e-05
-5.56223e-06
-1.85854e-05
-3.92375e-06
-1.84579e-05
-2.47623e-06
-1.17765e-06
4.57022e-08
-1.10907e-05
9.20525e-08
-1.12375e-05
1.4061e-07
-1.12297e-05
1.92275e-07
-1.12009e-05
2.47587e-07
-1.11621e-05
3.07128e-07
-1.11137e-05
3.71759e-07
-1.10544e-05
4.42772e-07
-1.09829e-05
5.21281e-07
-1.08985e-05
6.08435e-07
-1.08005e-05
7.05523e-07
-1.06879e-05
8.1405e-07
-1.05591e-05
9.35802e-07
-1.04127e-05
1.07293e-06
-1.02467e-05
1.22804e-06
-1.00593e-05
1.40438e-06
-9.84839e-06
1.60598e-06
-9.61203e-06
1.83797e-06
-9.34839e-06
2.10689e-06
-9.05607e-06
2.42108e-06
-8.73443e-06
2.79111e-06
-8.3843e-06
3.22999e-06
-8.00894e-06
3.75278e-06
-7.61558e-06
4.37457e-06
-7.2173e-06
5.107e-06
-6.83485e-06
5.9565e-06
-6.49781e-06
6.89814e-06
-6.24783e-06
7.82602e-06
-6.12661e-06
8.65965e-06
-6.12866e-06
9.38798e-06
-6.20959e-06
1.00222e-05
-6.32792e-06
1.05771e-05
-6.45537e-06
1.10659e-05
-6.57464e-06
1.1499e-05
-6.67576e-06
1.18843e-05
-6.75338e-06
1.22274e-05
-6.80505e-06
1.25318e-05
-6.82994e-06
1.27995e-05
-6.82818e-06
1.30317e-05
-6.80007e-06
1.3229e-05
-6.74604e-06
1.33922e-05
-6.66672e-06
1.35219e-05
-6.56315e-06
1.36183e-05
-6.43706e-06
1.36813e-05
-6.29054e-06
1.37108e-05
-6.12496e-06
1.3708e-05
-5.94029e-06
1.36743e-05
-5.73674e-06
1.36102e-05
-5.51548e-06
1.35165e-05
-5.27759e-06
1.33939e-05
-5.02387e-06
1.32435e-05
-4.75507e-06
1.30666e-05
-4.47182e-06
1.28649e-05
-4.17443e-06
1.26407e-05
-3.86293e-06
1.23969e-05
-3.53725e-06
1.2137e-05
-3.19719e-06
1.18658e-05
-2.84245e-06
1.15894e-05
-2.47284e-06
1.13155e-05
-2.08883e-06
1.1054e-05
-1.6922e-06
1.08161e-05
-1.28706e-06
1.06132e-05
-8.81196e-07
1.04544e-05
-4.87361e-07
1.03419e-05
-1.23952e-07
1.02392e-05
1.89619e-07
1.01203e-05
4.36797e-07
9.96848e-06
6.32572e-07
9.79344e-06
7.94834e-07
9.5996e-06
9.28782e-07
9.37794e-06
1.03367e-06
9.12949e-06
1.11653e-06
8.86079e-06
1.18387e-06
8.57236e-06
1.23693e-06
8.26393e-06
1.27722e-06
7.93708e-06
1.30799e-06
7.59448e-06
1.33374e-06
7.24119e-06
1.35954e-06
6.8839e-06
1.3876e-06
6.52634e-06
1.41536e-06
6.17694e-06
1.44202e-06
5.84087e-06
1.46077e-06
5.5027e-06
1.45654e-06
5.16267e-06
1.43693e-06
4.79376e-06
1.39595e-06
4.40394e-06
1.3449e-06
4.01443e-06
1.29924e-06
3.64777e-06
1.25809e-06
3.31662e-06
1.20843e-06
3.00109e-06
1.11986e-06
2.70654e-06
9.94705e-07
2.42012e-06
8.26036e-07
2.12929e-06
6.0006e-07
1.80486e-06
2.85716e-07
1.46406e-06
-1.0456e-07
1.06168e-06
-7.18419e-07
5.81732e-07
-1.5213e-06
-1.80055e-07
-3.04612e-06
-1.33141e-06
-4.64451e-06
-2.88041e-06
-5.57207e-06
-4.75979e-06
-4.99604e-06
-9.43626e-06
-1.39386e-05
-1.20787e-05
-1.29624e-05
-1.42638e-05
-1.21894e-05
-1.55328e-05
-1.018e-05
-1.64011e-05
-8.57479e-06
-1.68747e-05
-6.88752e-06
-1.71113e-05
-5.32562e-06
-1.71885e-05
-3.8466e-06
-1.71929e-05
-2.47182e-06
-1.19911e-06
5.49271e-08
-1.11456e-05
1.10542e-07
-1.12931e-05
1.68629e-07
-1.12878e-05
2.30267e-07
-1.12626e-05
2.95982e-07
-1.12278e-05
3.66624e-07
-1.11843e-05
4.43151e-07
-1.1131e-05
5.26914e-07
-1.10667e-05
6.19196e-07
-1.09908e-05
7.21323e-07
-1.09027e-05
8.34764e-07
-1.08013e-05
9.61199e-07
-1.06855e-05
1.10257e-06
-1.05541e-05
1.26117e-06
-1.04053e-05
1.4397e-06
-1.02378e-05
1.64139e-06
-1.00501e-05
1.87014e-06
-9.84078e-06
2.13068e-06
-9.60892e-06
2.42871e-06
-9.3541e-06
2.77108e-06
-9.0768e-06
3.1658e-06
-8.77901e-06
3.62175e-06
-8.46489e-06
4.1479e-06
-8.14175e-06
4.75148e-06
-7.8209e-06
5.43501e-06
-7.51839e-06
6.19194e-06
-7.25475e-06
6.99743e-06
-7.05332e-06
7.80316e-06
-6.93234e-06
8.56459e-06
-6.89008e-06
9.26142e-06
-6.90641e-06
9.89068e-06
-6.95717e-06
1.04566e-05
-7.02129e-06
1.09654e-05
-7.08346e-06
1.14232e-05
-7.13357e-06
1.18352e-05
-7.16532e-06
1.22052e-05
-7.17505e-06
1.2536e-05
-7.16078e-06
1.28294e-05
-7.1216e-06
1.30865e-05
-7.05718e-06
1.33081e-05
-6.96761e-06
1.34947e-05
-6.85337e-06
1.3647e-05
-6.71541e-06
1.37651e-05
-6.55519e-06
1.3849e-05
-6.37443e-06
1.38986e-05
-6.17454e-06
1.39146e-05
-5.95624e-06
1.3898e-05
-5.72014e-06
1.38497e-05
-5.4672e-06
1.37706e-05
-5.19853e-06
1.36619e-05
-4.91515e-06
1.35248e-05
-4.61801e-06
1.3361e-05
-4.30801e-06
1.31724e-05
-3.98584e-06
1.29615e-05
-3.65205e-06
1.27314e-05
-3.3071e-06
1.24856e-05
-2.95142e-06
1.22287e-05
-2.58554e-06
1.19661e-05
-2.21026e-06
1.17043e-05
-1.82706e-06
1.14507e-05
-1.43861e-06
1.1213e-05
-1.04938e-06
1.0998e-05
-6.66126e-07
1.08084e-05
-2.97799e-07
1.06383e-05
4.61495e-08
1.0481e-05
3.46863e-07
1.03142e-05
6.03637e-07
1.01283e-05
8.18466e-07
9.92392e-06
9.99211e-07
9.70177e-06
1.15093e-06
9.45906e-06
1.27638e-06
9.19575e-06
1.37984e-06
8.91419e-06
1.46542e-06
8.61559e-06
1.53552e-06
8.30063e-06
1.59218e-06
7.97046e-06
1.63817e-06
7.62721e-06
1.67699e-06
7.27484e-06
1.71191e-06
6.91789e-06
1.74454e-06
6.55934e-06
1.77391e-06
6.20293e-06
1.79842e-06
5.84946e-06
1.81424e-06
5.49071e-06
1.81529e-06
5.12549e-06
1.80215e-06
4.74734e-06
1.7741e-06
4.35701e-06
1.73523e-06
3.96504e-06
1.69121e-06
3.58272e-06
1.64041e-06
3.21514e-06
1.57601e-06
2.85206e-06
1.48293e-06
2.48958e-06
1.35719e-06
2.12234e-06
1.19328e-06
1.7502e-06
9.72191e-07
1.35851e-06
6.7741e-07
9.4214e-07
3.11807e-07
4.2607e-07
-2.02349e-07
-2.05196e-07
-8.9003e-07
-1.17037e-06
-2.08095e-06
-2.51798e-06
-3.2969e-06
-4.28384e-06
-3.80622e-06
-5.64838e-06
-3.63149e-06
-8.75631e-06
-1.08307e-05
-1.08514e-05
-1.08673e-05
-1.26014e-05
-1.04394e-05
-1.38392e-05
-8.94219e-06
-1.47074e-05
-7.70661e-06
-1.52772e-05
-6.31768e-06
-1.56161e-05
-4.9867e-06
-1.57917e-05
-3.67101e-06
-1.5868e-05
-2.39552e-06
-1.17397e-06
6.30925e-08
-1.12087e-05
1.26913e-07
-1.13569e-05
1.93447e-07
-1.13543e-05
2.63923e-07
-1.13331e-05
3.38989e-07
-1.13029e-05
4.19615e-07
-1.1265e-05
5.06881e-07
-1.12182e-05
6.02141e-07
-1.11619e-05
7.06802e-07
-1.10955e-05
8.22345e-07
-1.10182e-05
9.50391e-07
-1.09293e-05
1.09275e-06
-1.08279e-05
1.25147e-06
-1.07128e-05
1.42888e-06
-1.05827e-05
1.62767e-06
-1.04366e-05
1.85093e-06
-1.02733e-05
2.10224e-06
-1.00921e-05
2.38576e-06
-9.89245e-06
2.70623e-06
-9.67455e-06
3.06894e-06
-9.4395e-06
3.47963e-06
-9.18968e-06
3.94398e-06
-8.92923e-06
4.46684e-06
-8.66461e-06
5.05081e-06
-8.40486e-06
5.69413e-06
-8.16171e-06
6.38812e-06
-7.94873e-06
7.11412e-06
-7.77932e-06
7.84411e-06
-7.66233e-06
8.55099e-06
-7.59695e-06
9.21734e-06
-7.57275e-06
9.83517e-06
-7.575e-06
1.04031e-05
-7.58917e-06
1.09228e-05
-7.6032e-06
1.13973e-05
-7.60807e-06
1.18295e-05
-7.59748e-06
1.22217e-05
-7.56725e-06
1.25757e-05
-7.51479e-06
1.28927e-05
-7.43858e-06
1.31734e-05
-7.33788e-06
1.34183e-05
-7.21252e-06
1.36278e-05
-7.06289e-06
1.38022e-05
-6.88982e-06
1.39416e-05
-6.69462e-06
1.4046e-05
-6.4788e-06
1.41152e-05
-6.24378e-06
1.41497e-05
-5.99072e-06
1.41502e-05
-5.72061e-06
1.41176e-05
-5.43459e-06
1.4053e-05
-5.13389e-06
1.39575e-05
-4.81973e-06
1.38329e-05
-4.49333e-06
1.36807e-05
-4.15586e-06
1.35032e-05
-3.80836e-06
1.3303e-05
-3.45181e-06
1.3083e-05
-3.08714e-06
1.28469e-05
-2.71531e-06
1.25988e-05
-2.33744e-06
1.23435e-05
-1.95494e-06
1.20862e-05
-1.56981e-06
1.18326e-05
-1.18496e-06
1.15876e-05
-8.04397e-07
1.13549e-05
-4.3342e-07
1.11355e-05
-7.83516e-08
1.093e-05
2.51578e-07
1.07287e-05
5.48177e-07
1.05226e-05
8.09761e-07
1.03047e-05
1.03641e-06
1.00724e-05
1.23149e-06
9.82482e-06
1.39848e-06
9.56085e-06
1.54035e-06
9.28039e-06
1.6603e-06
8.98434e-06
1.76147e-06
8.67352e-06
1.84634e-06
8.34858e-06
1.91711e-06
8.01048e-06
1.97627e-06
7.66096e-06
2.0265e-06
7.30277e-06
2.0701e-06
6.93917e-06
2.10814e-06
6.57273e-06
2.14035e-06
6.20544e-06
2.16571e-06
5.83749e-06
2.18218e-06
5.46575e-06
2.18703e-06
5.08828e-06
2.17963e-06
4.70252e-06
2.15985e-06
4.30883e-06
2.12892e-06
3.91159e-06
2.08845e-06
3.51514e-06
2.03686e-06
3.12093e-06
1.97022e-06
2.72381e-06
1.88005e-06
2.32052e-06
1.76048e-06
1.90442e-06
1.60937e-06
1.46597e-06
1.41064e-06
9.80467e-07
1.16292e-06
4.36169e-07
8.56104e-07
-2.07374e-07
4.41192e-07
-9.73777e-07
-1.23627e-07
-2.00188e-06
-1.05285e-06
-3.36708e-06
-1.93169e-06
-4.99911e-06
-2.17419e-06
-6.17578e-06
-2.45482e-06
-8.32024e-06
-8.68624e-06
-9.96302e-06
-9.2245e-06
-1.13771e-05
-9.02534e-06
-1.24831e-05
-7.83616e-06
-1.32988e-05
-6.89097e-06
-1.38854e-05
-5.73102e-06
-1.42765e-05
-4.59558e-06
-1.4514e-05
-3.43359e-06
-1.46392e-05
-2.27023e-06
-1.12414e-06
7.01231e-08
-1.12788e-05
1.41017e-07
-1.14278e-05
2.14849e-07
-1.14282e-05
2.92963e-07
-1.14112e-05
3.76192e-07
-1.13861e-05
4.65549e-07
-1.13543e-05
5.62208e-07
-1.13149e-05
6.67541e-07
-1.12673e-05
7.83045e-07
-1.1211e-05
9.10331e-07
-1.11455e-05
1.05115e-06
-1.10702e-05
1.20741e-06
-1.09842e-05
1.3812e-06
-1.08866e-05
1.57485e-06
-1.07764e-05
1.79096e-06
-1.06527e-05
2.03239e-06
-1.05148e-05
2.30231e-06
-1.0362e-05
2.60423e-06
-1.01944e-05
2.94191e-06
-1.00122e-05
3.31931e-06
-9.8169e-06
3.74034e-06
-9.61069e-06
4.20839e-06
-9.39727e-06
4.7257e-06
-9.18191e-06
5.2923e-06
-8.97145e-06
5.90475e-06
-8.77415e-06
6.55482e-06
-8.59879e-06
7.2287e-06
-8.45319e-06
7.90829e-06
-8.34191e-06
8.57555e-06
-8.26421e-06
9.21673e-06
-8.21393e-06
9.82343e-06
-8.1817e-06
1.03917e-05
-8.15742e-06
1.09203e-05
-8.13188e-06
1.14098e-05
-8.09752e-06
1.18609e-05
-8.04857e-06
1.22745e-05
-7.98088e-06
1.26514e-05
-7.89166e-06
1.29919e-05
-7.77912e-06
1.32964e-05
-7.64232e-06
1.35648e-05
-7.48097e-06
1.37973e-05
-7.2954e-06
1.39939e-05
-7.08639e-06
1.41544e-05
-6.85517e-06
1.42788e-05
-6.60318e-06
1.4367e-05
-6.33194e-06
1.44191e-05
-6.04287e-06
1.44359e-05
-5.73734e-06
1.4418e-05
-5.41676e-06
1.43667e-05
-5.08259e-06
1.42833e-05
-4.73631e-06
1.41694e-05
-4.37942e-06
1.40269e-05
-4.01337e-06
1.38581e-05
-3.63954e-06
1.36655e-05
-3.25928e-06
1.34523e-05
-2.87392e-06
1.32218e-05
-2.48481e-06
1.29778e-05
-2.09347e-06
1.27246e-05
-1.70166e-06
1.24663e-05
-1.31159e-06
1.22074e-05
-9.26038e-07
1.19515e-05
-5.48507e-07
1.17015e-05
-1.83389e-07
1.1459e-05
1.64197e-07
1.12227e-05
4.87827e-07
1.0987e-05
7.83869e-07
1.07472e-05
1.04963e-06
1.04988e-05
1.28481e-06
1.02393e-05
1.49098e-06
9.96733e-06
1.67043e-06
9.68207e-06
1.8256e-06
9.38329e-06
1.95909e-06
9.07135e-06
2.07342e-06
8.74679e-06
2.17089e-06
8.41026e-06
2.25365e-06
8.06263e-06
2.32389e-06
7.70539e-06
2.38375e-06
7.34055e-06
2.43494e-06
6.97028e-06
2.47841e-06
6.59624e-06
2.51439e-06
6.21942e-06
2.54254e-06
5.8397e-06
2.5619e-06
5.45559e-06
2.57113e-06
5.06575e-06
2.56947e-06
4.66904e-06
2.55656e-06
4.26542e-06
2.53254e-06
3.85635e-06
2.49752e-06
3.44305e-06
2.45015e-06
3.02517e-06
2.3881e-06
2.59871e-06
2.30651e-06
2.1592e-06
2.19999e-06
1.69901e-06
2.06956e-06
1.20864e-06
1.90101e-06
6.71034e-07
1.70052e-06
7.53252e-08
1.45181e-06
-6.28206e-07
1.14472e-06
-1.467e-06
7.15168e-07
-2.52655e-06
6.69143e-09
-3.8567e-06
-6.01542e-07
-5.3317e-06
-6.99184e-07
-6.47542e-06
-1.31109e-06
-8.11681e-06
-7.04484e-06
-9.34663e-06
-7.99468e-06
-1.04743e-05
-7.89766e-06
-1.1395e-05
-6.91548e-06
-1.21254e-05
-6.16061e-06
-1.26781e-05
-5.17827e-06
-1.30747e-05
-4.19903e-06
-1.33346e-05
-3.17365e-06
-1.34825e-05
-2.12233e-06
-1.06091e-06
7.5939e-08
-1.13547e-05
1.52688e-07
-1.15046e-05
2.32581e-07
-1.1508e-05
3.17049e-07
-1.14956e-05
4.07118e-07
-1.14762e-05
5.03816e-07
-1.1451e-05
6.08379e-07
-1.14194e-05
7.22214e-07
-1.13811e-05
8.46907e-07
-1.13357e-05
9.84188e-07
-1.12828e-05
1.13592e-06
-1.12219e-05
1.30408e-06
-1.11523e-05
1.49079e-06
-1.10733e-05
1.69832e-06
-1.09839e-05
1.92908e-06
-1.08835e-05
2.18566e-06
-1.07714e-05
2.4708e-06
-1.06472e-05
2.78736e-06
-1.05109e-05
3.13827e-06
-1.03632e-05
3.52642e-06
-1.02051e-05
3.95437e-06
-1.00386e-05
4.424e-06
-9.86689e-06
4.93593e-06
-9.69383e-06
5.48891e-06
-9.52443e-06
6.07904e-06
-9.36427e-06
6.69917e-06
-9.21892e-06
7.33889e-06
-9.09291e-06
7.9855e-06
-8.98852e-06
8.62617e-06
-8.90487e-06
9.25006e-06
-8.83782e-06
9.84939e-06
-8.78102e-06
1.04192e-05
-8.72721e-06
1.09566e-05
-8.66935e-06
1.14604e-05
-8.60126e-06
1.19297e-05
-8.5179e-06
1.23643e-05
-8.41545e-06
1.27638e-05
-8.29116e-06
1.31279e-05
-8.14324e-06
1.34563e-05
-7.9707e-06
1.37486e-05
-7.77324e-06
1.40043e-05
-7.55116e-06
1.42232e-05
-7.3053e-06
1.44049e-05
-7.03687e-06
1.45492e-05
-6.7474e-06
1.46558e-05
-6.43854e-06
1.47249e-05
-6.11198e-06
1.4757e-05
-5.76944e-06
1.47528e-05
-5.41263e-06
1.47136e-05
-5.04333e-06
1.46406e-05
-4.66334e-06
1.45356e-05
-4.27443e-06
1.44006e-05
-3.87836e-06
1.42379e-05
-3.47684e-06
1.40501e-05
-3.07153e-06
1.38403e-05
-2.66408e-06
1.36117e-05
-2.25618e-06
1.33678e-05
-1.84957e-06
1.31123e-05
-1.44623e-06
1.28491e-05
-1.04839e-06
1.25817e-05
-6.58644e-07
1.23131e-05
-2.79875e-07
1.20448e-05
8.49227e-08
1.17797e-05
4.29335e-07
1.15155e-05
7.52001e-07
1.12501e-05
1.04926e-06
1.09805e-05
1.31918e-06
1.07041e-05
1.56131e-06
1.04186e-05
1.77641e-06
1.0123e-05
1.96602e-06
9.81663e-06
2.13202e-06
9.49916e-06
2.27655e-06
9.1708e-06
2.40178e-06
8.83189e-06
2.5098e-06
8.48294e-06
2.6026e-06
8.1247e-06
2.68213e-06
7.75827e-06
2.75017e-06
7.38505e-06
2.80816e-06
7.00641e-06
2.85706e-06
6.62336e-06
2.89743e-06
6.23646e-06
2.92944e-06
5.84562e-06
2.95274e-06
5.4501e-06
2.96665e-06
5.04901e-06
2.97056e-06
4.64152e-06
2.96406e-06
4.22713e-06
2.94693e-06
3.80576e-06
2.9189e-06
3.3769e-06
2.87901e-06
2.9391e-06
2.82589e-06
2.48845e-06
2.75716e-06
2.01992e-06
2.66851e-06
1.52646e-06
2.56302e-06
9.97882e-07
2.42959e-06
4.20631e-07
2.27777e-06
-2.20828e-07
2.09327e-06
-9.48108e-07
1.872e-06
-1.79638e-06
1.56344e-06
-2.83507e-06
1.04538e-06
-4.09909e-06
6.62478e-07
-5.50064e-06
7.0237e-07
-6.67004e-06
-1.41686e-07
-7.98694e-06
-5.72794e-06
-8.88822e-06
-7.0934e-06
-9.75657e-06
-7.0293e-06
-1.04928e-05
-6.17925e-06
-1.11223e-05
-5.53112e-06
-1.16239e-05
-4.67664e-06
-1.19998e-05
-3.82316e-06
-1.22597e-05
-2.91376e-06
-1.24135e-05
-1.96846e-06
-9.94566e-07
8.0454e-08
-1.14352e-05
1.61748e-07
-1.15859e-05
2.46368e-07
-1.15927e-05
3.35815e-07
-1.15851e-05
4.31285e-07
-1.15717e-05
5.3381e-07
-1.15535e-05
6.44667e-07
-1.15303e-05
7.65323e-07
-1.15018e-05
8.97473e-07
-1.14678e-05
1.04298e-06
-1.14283e-05
1.20381e-06
-1.13827e-05
1.38198e-06
-1.13305e-05
1.57959e-06
-1.12709e-05
1.79878e-06
-1.12031e-05
2.04175e-06
-1.11265e-05
2.31077e-06
-1.10404e-05
2.60819e-06
-1.09446e-05
2.93635e-06
-1.08391e-05
3.29755e-06
-1.07244e-05
3.69387e-06
-1.06014e-05
4.12693e-06
-1.04717e-05
4.59759e-06
-1.03376e-05
5.10559e-06
-1.02018e-05
5.64906e-06
-1.00679e-05
6.22416e-06
-9.93937e-06
6.82487e-06
-9.81962e-06
7.44306e-06
-9.7111e-06
8.06926e-06
-9.61472e-06
8.69376e-06
-9.52938e-06
9.30787e-06
-9.45193e-06
9.90454e-06
-9.37769e-06
1.04786e-05
-9.30122e-06
1.10262e-05
-9.21702e-06
1.1545e-05
-9.12003e-06
1.2033e-05
-9.00595e-06
1.2489e-05
-8.87136e-06
1.29116e-05
-8.71376e-06
1.32998e-05
-8.53145e-06
1.36526e-05
-8.32353e-06
1.39691e-05
-8.08977e-06
1.42485e-05
-7.83057e-06
1.44901e-05
-7.54682e-06
1.46931e-05
-7.23989e-06
1.48571e-05
-6.91142e-06
1.49818e-05
-6.5633e-06
1.50674e-05
-6.19751e-06
1.5114e-05
-5.8161e-06
1.51226e-05
-5.42117e-06
1.50941e-05
-5.01484e-06
1.503e-05
-4.59923e-06
1.4932e-05
-4.17647e-06
1.48023e-05
-3.74861e-06
1.46431e-05
-3.31769e-06
1.44572e-05
-2.88566e-06
1.42476e-05
-2.45443e-06
1.40173e-05
-2.02592e-06
1.37698e-05
-1.60206e-06
1.35085e-05
-1.18489e-06
1.32367e-05
-7.76587e-07
1.29576e-05
-3.79549e-07
1.26731e-05
4.63951e-09
1.23875e-05
3.70504e-07
1.20998e-05
7.16994e-07
1.18104e-05
1.0414e-06
1.15182e-05
1.34145e-06
1.12216e-05
1.61578e-06
1.0919e-05
1.86398e-06
1.06089e-05
2.08652e-06
1.02904e-05
2.28448e-06
9.96304e-06
2.45938e-06
9.6266e-06
2.61299e-06
9.2812e-06
2.74718e-06
8.92712e-06
2.86387e-06
8.56479e-06
2.96493e-06
8.1948e-06
3.05213e-06
7.81792e-06
3.12705e-06
7.43505e-06
3.19103e-06
7.04702e-06
3.24509e-06
6.65444e-06
3.29001e-06
6.25762e-06
3.32626e-06
5.85648e-06
3.35388e-06
5.45053e-06
3.3726e-06
5.03903e-06
3.38205e-06
4.62116e-06
3.38193e-06
4.19608e-06
3.37201e-06
3.7629e-06
3.35208e-06
3.32029e-06
3.32162e-06
2.86626e-06
3.27992e-06
2.39688e-06
3.22654e-06
1.90727e-06
3.15812e-06
1.39137e-06
3.07892e-06
8.39566e-07
2.98139e-06
2.42382e-07
2.87495e-06
-4.13712e-07
2.74936e-06
-1.14286e-06
2.60115e-06
-1.9711e-06
2.39167e-06
-2.96973e-06
2.04401e-06
-4.17208e-06
1.86482e-06
-5.51472e-06
2.04501e-06
-6.73609e-06
1.07968e-06
-7.85626e-06
-4.60777e-06
-8.51489e-06
-6.43477e-06
-9.16205e-06
-6.38214e-06
-9.73463e-06
-5.60666e-06
-1.02555e-05
-5.0103e-06
-1.06936e-05
-4.23848e-06
-1.10341e-05
-3.48264e-06
-1.12799e-05
-2.66796e-06
-1.14291e-05
-1.81924e-06
-9.30505e-07
8.35772e-08
-1.15188e-05
1.6801e-07
-1.16703e-05
2.55926e-07
-1.16806e-05
3.48891e-07
-1.16781e-05
4.48222e-07
-1.1671e-05
5.54953e-07
-1.16603e-05
6.70391e-07
-1.16457e-05
7.96109e-07
-1.16275e-05
9.33965e-07
-1.16057e-05
1.08597e-06
-1.15803e-05
1.25417e-06
-1.15509e-05
1.44055e-06
-1.15169e-05
1.64711e-06
-1.14774e-05
1.8758e-06
-1.14318e-05
2.12864e-06
-1.13793e-05
2.40765e-06
-1.13194e-05
2.71487e-06
-1.12518e-05
3.0523e-06
-1.11765e-05
3.42172e-06
-1.10938e-05
3.82464e-06
-1.10043e-05
4.26203e-06
-1.09091e-05
4.73413e-06
-1.08097e-05
5.24016e-06
-1.07079e-05
5.77807e-06
-1.06058e-05
6.34429e-06
-1.05056e-05
6.93371e-06
-1.0409e-05
7.53982e-06
-1.03172e-05
8.15516e-06
-1.02301e-05
8.77202e-06
-1.01462e-05
9.38316e-06
-1.00631e-05
9.98225e-06
-9.97678e-06
1.05641e-05
-9.88305e-06
1.11245e-05
-9.77742e-06
1.16601e-05
-9.65569e-06
1.21684e-05
-9.51418e-06
1.26469e-05
-9.34991e-06
1.30938e-05
-9.16063e-06
1.35072e-05
-8.94486e-06
1.38855e-05
-8.70185e-06
1.42273e-05
-8.43151e-06
1.45311e-05
-8.13439e-06
1.47959e-05
-7.81158e-06
1.50206e-05
-7.46461e-06
1.52045e-05
-7.09538e-06
1.53473e-05
-6.70606e-06
1.54487e-05
-6.29897e-06
1.55092e-05
-5.87654e-06
1.55293e-05
-5.44127e-06
1.55101e-05
-4.99568e-06
1.54532e-05
-4.54227e-06
1.53602e-05
-4.08351e-06
1.52334e-05
-3.6218e-06
1.50752e-05
-3.15947e-06
1.48883e-05
-2.69876e-06
1.46757e-05
-2.24181e-06
1.44405e-05
-1.79073e-06
1.41859e-05
-1.34755e-06
1.39154e-05
-9.14322e-07
1.36319e-05
-4.93093e-07
1.33383e-05
-8.59462e-08
1.3038e-05
3.04939e-07
1.27322e-05
6.76236e-07
1.24223e-05
1.02698e-06
1.21086e-05
1.35511e-06
1.17909e-05
1.65908e-06
1.14687e-05
1.93801e-06
1.1141e-05
2.19167e-06
1.0807e-05
2.42048e-06
1.04662e-05
2.62531e-06
1.01182e-05
2.80744e-06
9.76276e-06
2.96839e-06
9.4001e-06
3.10984e-06
9.03043e-06
3.23354e-06
8.65412e-06
3.34124e-06
8.27162e-06
3.43463e-06
7.88347e-06
3.51521e-06
7.4902e-06
3.5843e-06
7.09229e-06
3.643e-06
6.69005e-06
3.69225e-06
6.28359e-06
3.73272e-06
5.87277e-06
3.76471e-06
5.45712e-06
3.78825e-06
5.03594e-06
3.80323e-06
4.60833e-06
3.80954e-06
4.17324e-06
3.8071e-06
3.72943e-06