/*--------------------------------*- C++ -*----------------------------------*\
| =========                 |                                                 |
| \\      /  F ield         | OpenFOAM: The Open Source CFD Toolbox           |
|  \\    /   O peration     | Version:  v2106                                 |
|   \\  /    A nd           | Website:  www.openfoam.com                      |
|    \\/     M anipulation  |                                                 |
\*---------------------------------------------------------------------------*/
FoamFile
{
    version     2.0;
    format      ascii;
    arch        "LSB;label=32;scalar=64";
    class       volVectorField;
    location    "1.7";
    object      U;
}
// * * * * * * * * * * * * * * * * * * * * * * * * * * * * * * * * * * * * * //

dimensions      [0 1 -1 0 0 0 0];

internalField   nonuniform List<vector> 
29678
(
(-0.0914464 -8.02784e-24 -7.17463e-06)
(-0.0926268 6.19338e-22 -4.26811e-06)
(-0.0924734 7.99525e-21 2.58612e-05)
(-0.0921315 1.26051e-19 8.36327e-05)
(-0.0916941 4.74489e-19 0.000159132)
(-0.0911729 4.3089e-19 0.000247917)
(-0.0905466 3.84709e-19 0.000336268)
(-0.0897882 4.57985e-19 0.000433522)
(-0.0888853 -7.59127e-19 0.000540793)
(-0.0878362 1.84246e-19 0.000663228)
(-0.0866298 -7.69312e-19 0.000804773)
(-0.085249 3.81165e-19 0.000968576)
(-0.0836723 -7.54949e-19 0.00115796)
(-0.0818735 2.08619e-19 0.00137678)
(-0.0798217 -6.96922e-19 0.00162965)
(-0.0774792 3.77119e-19 0.00192246)
(-0.0747992 -6.3343e-19 0.0022633)
(-0.0717215 -6.27635e-19 0.00266432)
(-0.0681658 4.15232e-19 0.00314558)
(-0.0640192 -6.14519e-19 0.0037438)
(-0.0591151 -6.27369e-19 0.0045334)
(-0.053192 -5.68516e-19 0.00567821)
(-0.0458194 -5.63974e-20 0.00754743)
(-0.0362568 -1.38541e-19 0.0108837)
(-0.0231732 -2.02342e-19 0.0169578)
(-0.00396444 -1.25536e-19 0.0278349)
(0.0199693 -1.67787e-20 0.0470306)
(0.00697035 1.95108e-19 0.0676183)
(-0.0102444 -3.80855e-19 0.0804693)
(-0.0207871 -4.76686e-19 0.0870478)
(-0.0281465 -3.67838e-19 0.0914232)
(-0.0334939 -2.49258e-19 0.0947713)
(-0.0375156 -1.11254e-19 0.0975209)
(-0.0406626 5.71621e-19 0.099866)
(-0.0431219 2.44274e-19 0.101917)
(-0.0450925 3.41153e-19 0.103739)
(-0.0466378 2.15959e-19 0.105379)
(-0.0479982 -9.54644e-20 0.106834)
(-0.0491544 7.83561e-19 0.108043)
(-0.0500286 3.22874e-19 0.109013)
(-0.0507432 6.41602e-19 0.109758)
(-0.0513098 3.15592e-19 0.110209)
(-0.0515849 3.10795e-19 0.110363)
(-0.0516469 2.7457e-19 0.110293)
(-0.0515846 -6.66952e-19 0.109985)
(-0.0512292 1.0103e-19 0.109428)
(-0.0506067 7.72469e-19 0.108683)
(-0.0499313 6.90829e-20 0.107757)
(-0.0491986 2.41073e-19 0.106583)
(-0.0482868 9.98075e-20 0.105138)
(-0.0472091 6.14856e-19 0.103455)
(-0.0460438 2.15488e-19 0.101524)
(-0.0447137 -2.19276e-19 0.0993239)
(-0.0431736 -3.32806e-19 0.0968671)
(-0.0414427 2.26883e-19 0.0941695)
(-0.0394867 2.1283e-19 0.091235)
(-0.0373115 8.93139e-20 0.0880564)
(-0.0347569 1.56734e-19 0.0846421)
(-0.0317171 6.02498e-20 0.0810502)
(-0.0279788 1.67934e-19 0.0773874)
(-0.0231316 9.7574e-20 0.0739074)
(-0.0167957 1.13883e-19 0.0711486)
(-0.00814191 -1.64145e-19 0.0700191)
(0.00443017 1.72844e-19 0.0718091)
(0.0122121 2.93368e-19 0.0765393)
(0.00234153 -3.51831e-20 0.0799334)
(-0.00249522 -1.70051e-19 0.0788632)
(0.00164675 -2.02534e-19 0.0770412)
(0.00474507 -6.15517e-20 0.0766339)
(-0.000536363 4.3014e-20 0.0761825)
(-0.00172571 9.26362e-20 0.0738593)
(0.000128995 -2.62673e-19 0.0715345)
(-0.000825476 -7.245e-20 0.0695543)
(-0.00229971 8.6483e-20 0.0671544)
(-0.00313916 -1.12631e-19 0.0642905)
(-0.00381962 -3.11662e-20 0.0611715)
(-0.0040679 1.42891e-19 0.0578334)
(-0.0027897 6.78888e-20 0.0549553)
(-0.00549915 -1.92388e-19 0.0515878)
(-0.00195427 -4.80408e-21 0.0477171)
(0.00183724 1.47526e-19 0.0461382)
(0.00151609 6.35869e-20 0.0452902)
(0.00530912 -1.8902e-19 0.0449427)
(-0.00583533 -2.02689e-20 0.0445229)
(-0.00901964 1.67336e-19 0.0395417)
(-0.0117879 -1.49177e-19 0.0335037)
(-0.00339444 -3.40559e-20 0.0285426)
(0.00178004 1.78429e-20 0.0279911)
(-0.00141948 7.61857e-20 0.027775)
(0.00133113 -1.32422e-19 0.0264135)
(0.00304553 3.01177e-20 0.0269342)
(-2.27389e-05 4.73e-20 0.0282734)
(0.000486824 -5.069e-20 0.0289383)
(0.00291096 -3.23018e-20 0.0326977)
(0.00300241 -2.81603e-20 0.0381068)
(0.00186524 -4.63752e-20 0.0491683)
(0.00300439 3.35072e-21 0.0627686)
(-0.0319269 -6.16542e-20 0.0955891)
(-0.508371 1.5218e-19 0.0927042)
(-0.316533 1.94243e-18 -0.320747)
(-0.324794 -4.53519e-19 -0.205247)
(-0.149589 -3.82514e-19 -0.286855)
(-0.161508 -2.17961e-19 -0.226681)
(-0.0854872 1.0433e-19 -0.248234)
(-0.0818409 -3.94061e-19 -0.220734)
(-0.0417067 -3.80679e-19 -0.220413)
(-0.0306751 -1.13512e-19 -0.20576)
(-0.00783668 5.72309e-19 -0.196716)
(-0.00899811 7.64912e-20 -0.187258)
(-0.00174049 -5.29959e-19 -0.182694)
(-0.0914781 -4.43689e-23 4.9997e-05)
(-0.0926807 7.3321e-22 0.000153598)
(-0.0925595 2.22635e-20 0.000266483)
(-0.0922463 4.39226e-19 0.000396508)
(-0.0918322 -1.41075e-20 0.000544809)
(-0.0913302 -2.50663e-20 0.000706891)
(-0.0907168 -9.06097e-21 0.000883393)
(-0.0899723 5.02428e-19 0.00108992)
(-0.089095 -4.45398e-19 0.00131982)
(-0.0880779 -6.65146e-20 0.00158121)
(-0.086909 -4.34699e-19 0.00187947)
(-0.0855717 4.17843e-19 0.00221979)
(-0.0840452 -4.45907e-19 0.00260839)
(-0.0823049 -7.33607e-20 0.00305301)
(-0.0803217 -3.57403e-19 0.00356345)
(-0.0780615 3.78086e-19 0.00415257)
(-0.0754832 -2.67693e-19 0.00483788)
(-0.0725365 -3.08415e-19 0.00564418)
(-0.0691594 6.12449e-19 0.00660778)
(-0.0652753 -2.12449e-19 0.00778293)
(-0.0607927 -2.57435e-19 0.00924956)
(-0.0556123 -2.40367e-19 0.0111153)
(-0.0496601 -7.60887e-20 0.0134996)
(-0.0429692 -2.22205e-19 0.0165638)
(-0.0357791 1.70102e-20 0.0208464)
(-0.0287014 -3.16517e-19 0.0279656)
(-0.0234567 2.23068e-19 0.0430848)
(-0.024655 2.92867e-19 0.0628284)
(-0.029287 8.86472e-20 0.0765955)
(-0.0338596 1.91179e-20 0.0842285)
(-0.0377763 -1.47041e-19 0.0894216)
(-0.0410225 -3.29035e-19 0.0933691)
(-0.043678 -5.34262e-19 0.0965949)
(-0.0458375 3.15405e-20 0.0993265)
(-0.0475675 -4.58937e-20 0.10169)
(-0.0489389 8.14435e-21 0.103763)
(-0.0500028 -1.15073e-19 0.105596)
(-0.0508268 -5.0356e-19 0.107198)
(-0.0514258 2.64224e-19 0.108537)
(-0.0518004 -2.65013e-19 0.109616)
(-0.0519662 -4.50234e-20 0.110441)
(-0.0519441 7.94396e-20 0.110957)
(-0.051784 4.04039e-20 0.111221)
(-0.0514662 3.63851e-19 0.11128)
(-0.0509853 -2.83129e-20 0.111101)
(-0.0502697 1.23423e-19 0.110694)
(-0.049353 -3.21238e-19 0.110086)
(-0.0483029 -1.28392e-19 0.109289)
(-0.0471187 3.54553e-19 0.10826)
(-0.0457761 1.17966e-19 0.106976)
(-0.0442805 5.07816e-19 0.105455)
(-0.0426422 2.56489e-19 0.103697)
(-0.0408426 -2.80502e-20 0.101691)
(-0.038863 -1.77544e-19 0.0994485)
(-0.0366901 2.22276e-19 0.0969912)
(-0.0342989 -3.78043e-21 0.0943332)
(-0.0316555 -9.28667e-20 0.0914816)
(-0.0286966 6.27993e-21 0.0884549)
(-0.0253548 -4.16351e-20 0.0853075)
(-0.0215507 1.45186e-19 0.0821232)
(-0.0172075 5.44755e-20 0.0790673)
(-0.0123291 3.65668e-20 0.0763594)
(-0.00711377 -2.34733e-19 0.074325)
(-0.00205064 1.98093e-19 0.0747183)
(0.0015097 3.07284e-19 0.0787031)
(0.00180345 6.63631e-20 0.0820993)
(0.00178114 -2.61559e-19 0.0814184)
(0.00277778 4.28221e-19 0.0794792)
(0.00364386 -5.12079e-20 0.0791524)
(0.0032438 -1.98067e-19 0.0786689)
(0.00304165 1.6808e-19 0.0764907)
(0.00329359 -2.93685e-19 0.0743428)
(0.00317424 5.04283e-20 0.0725305)
(0.00288463 2.3689e-19 0.0702391)
(0.00262624 3.39725e-19 0.067423)
(0.00239892 -3.85817e-19 0.0643237)
(0.00231313 1.24459e-19 0.0610552)
(0.00246066 9.18922e-20 0.0581235)
(0.00238642 -1.76249e-20 0.0546727)
(0.00314696 -7.9496e-20 0.0506254)
(0.00420916 -1.42199e-20 0.0491559)
(0.00359925 -9.18175e-21 0.0474817)
(0.00413189 -1.14426e-19 0.0462241)
(0.00182137 3.71902e-19 0.0451729)
(0.000298818 -5.82287e-20 0.0404441)
(-0.000337777 -2.00332e-19 0.0345421)
(0.000893672 -1.16641e-19 0.0290988)
(0.00223705 1.02782e-19 0.0279562)
(0.00149495 7.25275e-20 0.0270788)
(0.00140988 -6.82743e-21 0.024885)
(0.000792076 1.00974e-19 0.0243064)
(-0.00105652 -2.31258e-19 0.0244091)
(-0.00359799 2.98903e-20 0.0236784)
(-0.00664862 7.9647e-20 0.0257244)
(-0.0128809 -6.14761e-22 0.0282465)
(-0.0215596 -1.09777e-20 0.0352627)
(-0.0405808 -5.07668e-20 0.0455259)
(-0.0662813 -8.35932e-20 0.0684286)
(-0.100942 -1.81424e-21 0.0686938)
(-0.137461 7.48199e-18 -0.260554)
(-0.290432 -1.17639e-19 -0.182393)
(-0.179451 -3.55208e-19 -0.229804)
(-0.165413 -2.20335e-19 -0.194668)
(-0.112083 4.23808e-20 -0.210742)
(-0.0919782 3.36401e-20 -0.196666)
(-0.0641415 3.26855e-20 -0.197444)
(-0.0464256 -7.77066e-20 -0.188261)
(-0.0294022 -3.72568e-20 -0.181253)
(-0.0180143 -4.40624e-19 -0.174219)
(-0.00779334 1.70642e-19 -0.170973)
(-0.0916358 -8.90329e-23 0.000101302)
(-0.0928425 -5.07356e-22 0.000305084)
(-0.0927329 -5.33028e-21 0.000516966)
(-0.092434 -7.49064e-20 0.000746608)
(-0.0920388 -4.13647e-19 0.000997016)
(-0.0915559 -4.50602e-19 0.00126561)
(-0.0909678 -4.55941e-19 0.00156745)
(-0.090255 -3.91761e-19 0.00190312)
(-0.0894144 7.27543e-19 0.00227442)
(-0.0884392 -2.4287e-19 0.00269011)
(-0.0873181 7.07836e-19 0.00315741)
(-0.0860354 -3.0156e-19 0.00368397)
(-0.0845721 6.45063e-19 0.00427899)
(-0.0829056 -2.44281e-19 0.00495383)
(-0.08101 6.51274e-19 0.00572285)
(-0.0788554 -2.74658e-19 0.00660457)
(-0.0764075 5.43922e-19 0.00762356)
(-0.073626 5.29152e-19 0.00881327)
(-0.0704643 -3.13636e-19 0.0102203)
(-0.0668691 4.95703e-19 0.0119112)
(-0.0627813 5.06665e-19 0.0139821)
(-0.0581358 4.75153e-19 0.0165776)
(-0.0528558 3.58351e-20 0.0199314)
(-0.046827 1.23999e-19 0.0244689)
(-0.0399292 2.02346e-19 0.0308819)
(-0.0324018 2.12374e-19 0.0397726)
(-0.0255867 -6.37976e-20 0.0510207)
(-0.0246904 -2.73205e-19 0.0625932)
(-0.0282443 2.21864e-19 0.0720999)
(-0.0324308 2.85065e-19 0.0793152)
(-0.0363336 3.02047e-19 0.0849773)
(-0.0397189 2.80624e-19 0.0895764)
(-0.042577 1.27406e-19 0.0934179)
(-0.0449556 -1.86411e-19 0.0967006)
(-0.0468996 -1.47339e-19 0.0995544)
(-0.0484634 1.4939e-19 0.102061)
(-0.0496912 -1.2296e-19 0.104267)
(-0.0506366 -5.17798e-19 0.106197)
(-0.0513238 1.80913e-19 0.107851)
(-0.0517606 -1.39345e-19 0.109233)
(-0.051962 -6.42133e-19 0.110353)
(-0.0519416 -2.43157e-19 0.111206)
(-0.0517088 1.72541e-19 0.111772)
(-0.0512686 -1.19707e-19 0.112057)
(-0.0506234 -4.92337e-19 0.112077)
(-0.0497576 5.03279e-19 0.111847)
(-0.0486946 -6.13578e-19 0.111387)
(-0.0474802 -8.07564e-19 0.110702)
(-0.0461263 -3.13295e-19 0.109779)
(-0.0446274 1.22031e-19 0.108611)
(-0.0429882 -5.56193e-20 0.107206)
(-0.0412161 -5.58014e-19 0.105569)
(-0.0393016 -3.4196e-20 0.103701)
(-0.0372309 -1.75843e-19 0.101614)
(-0.0349928 -3.53475e-19 0.0993249)
(-0.0325697 9.40085e-20 0.0968539)
(-0.0299359 1.83592e-19 0.0942281)
(-0.0270466 -3.45482e-19 0.0914905)
(-0.0238513 -4.71292e-19 0.0887142)
(-0.0202932 -2.15713e-19 0.0860119)
(-0.0163171 1.13529e-19 0.0835576)
(-0.0119158 -1.66254e-20 0.0816069)
(-0.00710961 -3.41068e-19 0.0805831)
(-0.00208682 1.50515e-19 0.0806684)
(0.00151906 2.91083e-20 0.081451)
(0.00237243 -1.65468e-19 0.0819075)
(0.00243923 -3.88355e-20 0.0813926)
(0.00327147 3.69474e-19 0.0803564)
(0.00420416 -7.56764e-21 0.0793615)
(0.00402022 -3.48733e-19 0.0781323)
(0.00387404 -4.69038e-20 0.0763349)
(0.00403228 2.39648e-19 0.0743078)
(0.00392862 5.79218e-21 0.0721548)
(0.00363329 -2.57702e-19 0.0697562)
(0.00334558 1.63129e-19 0.0671243)
(0.00312729 -2.2572e-20 0.0643264)
(0.00305208 -2.40209e-19 0.061415)
(0.0032085 -6.24929e-20 0.058462)
(0.00324361 2.05215e-19 0.0554094)
(0.00392356 -2.93586e-20 0.0523432)
(0.00495298 -1.56897e-19 0.0498404)
(0.00456145 -3.33252e-20 0.0474808)
(0.00485506 1.50959e-19 0.0452523)
(0.00284429 -5.46567e-21 0.0427501)
(0.0014928 -1.96361e-19 0.0393057)
(0.00104522 1.08151e-19 0.0355506)
(0.00208453 -1.88988e-20 0.0320449)
(0.00349588 -4.16101e-20 0.0295768)
(0.00304425 -1.9195e-20 0.0278066)
(0.00296714 1.23567e-19 0.0260864)
(0.00250271 -2.0529e-20 0.0249001)
(0.00121622 -1.50226e-19 0.024173)
(-0.000893333 3.55554e-20 0.023177)
(-0.00291792 1.86158e-20 0.0232613)
(-0.00809927 -7.04235e-20 0.0230126)
(-0.015221 5.10026e-20 0.0232573)
(-0.0339918 -6.9906e-20 0.0232966)
(-0.0608216 2.12011e-19 0.0195889)
(-0.0979766 -6.80017e-20 0.0100384)
(-0.100088 -2.93668e-21 -0.0215204)
(-0.257734 3.94945e-19 -0.0931527)
(-0.170001 -4.61172e-21 -0.145938)
(-0.150045 1.59678e-19 -0.153764)
(-0.106632 -2.66021e-20 -0.173027)
(-0.0861525 2.78638e-19 -0.171688)
(-0.0615239 9.745e-20 -0.17498)
(-0.0441371 -9.46061e-20 -0.172363)
(-0.0283855 -2.14412e-19 -0.169921)
(-0.0174539 2.22707e-19 -0.166862)
(-0.00776459 3.24271e-19 -0.164597)
(-0.0918865 -7.67456e-23 0.000148056)
(-0.0930982 -7.39825e-22 0.000444325)
(-0.0930029 -1.28486e-20 0.000750563)
(-0.0927232 -3.88235e-19 0.0010791)
(-0.0923534 4.13815e-19 0.00143031)
(-0.0918984 4.13245e-19 0.00180391)
(-0.0913431 4.24067e-19 0.00221771)
(-0.0906703 -1.7194e-20 0.00267227)
(-0.0898769 -3.46194e-19 0.00317357)
(-0.0889561 3.64867e-19 0.00373125)
(-0.0878973 -2.98661e-19 0.00435398)
(-0.0866867 -4.40442e-20 0.00505151)
(-0.0853069 -3.53548e-19 0.00583552)
(-0.0837383 3.42362e-19 0.00672032)
(-0.0819587 -2.60319e-19 0.00772358)
(-0.0799436 -4.02071e-20 0.00886761)
(-0.077666 -3.59835e-19 0.010181)
(-0.0750966 -2.51771e-19 0.0117014)
(-0.0722045 -3.5191e-19 0.0134787)
(-0.0689592 -3.65639e-19 0.0155805)
(-0.0653354 -2.88477e-19 0.0180986)
(-0.0613212 -2.11518e-19 0.0211586)
(-0.056938 -3.07348e-20 0.0249298)
(-0.0522917 2.72261e-19 0.0296201)
(-0.0477027 -1.78551e-19 0.0354252)
(-0.0438497 4.66793e-19 0.0425171)
(-0.0415615 -1.35059e-19 0.051037)
(-0.0414562 -4.20904e-19 0.0603826)
(-0.0428791 -4.35701e-19 0.0691205)
(-0.0448524 -2.90489e-19 0.0764418)
(-0.046896 -1.22342e-19 0.0824607)
(-0.0487901 -1.59228e-19 0.0874685)
(-0.0504353 2.32347e-19 0.0917102)
(-0.0517949 6.914e-19 0.095361)
(-0.0528648 1.62756e-19 0.098542)
(-0.0536584 3.38542e-19 0.101335)
(-0.0541947 2.21894e-19 0.103791)
(-0.0544942 -8.16391e-20 0.10594)
(-0.0545685 6.7554e-19 0.107796)
(-0.0544246 3.29559e-19 0.109367)
(-0.0540687 3.91444e-19 0.110663)
(-0.0535099 6.11643e-20 0.111687)
(-0.0527725 3.4184e-19 0.112433)
(-0.0518894 3.25342e-19 0.112895)
(-0.0508734 -6.86632e-19 0.113083)
(-0.0497015 5.92441e-19 0.113012)
(-0.0483675 8.13835e-19 0.112697)
(-0.0468869 1.51339e-19 0.112142)
(-0.0452664 3.38696e-20 0.111346)
(-0.0435053 8.818e-20 0.110311)
(-0.0416066 5.65843e-19 0.109043)
(-0.0395729 3.81615e-20 0.10755)
(-0.0373989 -4.49743e-19 0.10584)
(-0.0350763 -2.92135e-19 0.103927)
(-0.0325958 2.40123e-19 0.10183)
(-0.0299441 4.72749e-20 0.0995745)
(-0.0271031 1.73994e-19 0.0971948)
(-0.0240501 1.40524e-19 0.0947372)
(-0.0207656 6.5279e-20 0.0922683)
(-0.0172422 1.32717e-20 0.0898785)
(-0.0135002 1.31545e-20 0.0876855)
(-0.00961938 7.09642e-20 0.0858268)
(-0.00577662 -2.16211e-19 0.0844187)
(-0.00238631 3.45367e-19 0.0835888)
(0.0002522 4.82856e-19 0.0833965)
(0.00200593 -2.1229e-19 0.0832505)
(0.00325593 -3.55151e-19 0.0825402)
(0.00438983 -3.92762e-19 0.0813962)
(0.00532068 -5.73978e-20 0.0800854)
(0.00586888 2.75693e-19 0.0785853)
(0.00629394 5.47601e-20 0.0767519)
(0.00667325 -2.99548e-19 0.074688)
(0.00693621 -8.25438e-20 0.0724773)
(0.00710261 2.31771e-19 0.0700801)
(0.00721432 -1.17945e-19 0.067492)
(0.0073064 -7.36565e-20 0.0647425)
(0.0074469 1.70776e-19 0.0618666)
(0.00767528 8.26919e-20 0.0589293)
(0.00793557 -2.28508e-19 0.0559214)
(0.00826749 -8.60244e-21 0.0529296)
(0.00858239 1.32402e-19 0.0502761)
(0.00854933 7.15852e-20 0.0476696)
(0.00839098 -1.91551e-19 0.0449519)
(0.00770916 -3.10518e-20 0.042144)
(0.00706077 1.75268e-19 0.0388717)
(0.00665385 -1.54436e-19 0.0352892)
(0.00648345 -2.88306e-20 0.0318771)
(0.00631872 4.5834e-20 0.0291136)
(0.00554792 2.55513e-20 0.0267272)
(0.0045736 -1.06882e-19 0.024378)
(0.00307081 -8.69651e-21 0.0223418)
(0.000974341 8.11129e-20 0.0207313)
(-0.00210394 -4.85547e-20 0.0190728)
(-0.00580918 1.23392e-21 0.0184579)
(-0.011788 3.36665e-20 0.017337)
(-0.019484 1.71215e-21 0.0164432)
(-0.0347868 9.83555e-20 0.0157853)
(-0.0520421 1.24096e-19 0.00925619)
(-0.0641002 1.76339e-19 -0.000405386)
(-0.0673467 4.07629e-22 -0.0235938)
(-0.172522 4.34185e-19 -0.0666204)
(-0.141836 -1.40906e-20 -0.116572)
(-0.1295 -1.20368e-19 -0.128421)
(-0.100792 2.80379e-19 -0.146751)
(-0.082784 -4.27738e-20 -0.151211)
(-0.0638154 -2.5346e-19 -0.156085)
(-0.0480035 -1.15706e-19 -0.156316)
(-0.0336693 3.64682e-19 -0.155627)
(-0.0211501 9.65787e-20 -0.154177)
(-0.0100119 -2.83004e-19 -0.153088)
(-0.0922261 -3.13117e-23 0.000191006)
(-0.0934432 1.94046e-22 0.000572082)
(-0.0933651 6.05466e-21 0.00096466)
(-0.0931093 -5.59673e-20 0.0013846)
(-0.0927687 -7.24421e-22 0.00182726)
(-0.0923462 1.54286e-20 0.00229834)
(-0.0918298 2.73289e-20 0.0028166)
(-0.0912061 3.34014e-20 0.00338161)
(-0.0904703 3.01663e-20 0.00400288)
(-0.0896159 1.8175e-20 0.00469127)
(-0.0886336 7.57781e-20 0.00545695)
(-0.0875109 6.07987e-21 0.00631146)
(-0.0862331 4.25026e-20 0.00726842)
(-0.0847835 5.13431e-21 0.00834416)
(-0.0831437 3.56804e-20 0.00955843)
(-0.0812947 -4.52199e-21 0.0109354)
(-0.0792166 1.04473e-19 0.0125052)
(-0.0768899 3.80964e-20 0.0143057)
(-0.0742973 -1.04008e-19 0.0163851)
(-0.0714262 7.65361e-20 0.0188049)
(-0.0682749 5.7257e-20 0.0216433)
(-0.0648612 3.30867e-20 0.024998)
(-0.061238 -1.33252e-19 0.0289862)
(-0.0575172 1.75937e-19 0.0337353)
(-0.0538898 1.37319e-20 0.0393596)
(-0.0506206 2.4958e-19 0.0459394)
(-0.0480902 1.52726e-19 0.0534078)
(-0.0468324 -2.10676e-19 0.0612442)
(-0.0469145 1.11023e-19 0.0686629)
(-0.0478255 1.36848e-19 0.0752379)
(-0.0491114 -6.74394e-21 0.080954)
(-0.0504844 -3.65679e-19 0.0859285)
(-0.0517784 -2.4115e-19 0.090286)
(-0.0529036 2.56304e-19 0.0941299)
(-0.0538149 -9.309e-21 0.097539)
(-0.0544943 2.08958e-20 0.100571)
(-0.0549388 -6.96395e-20 0.103264)
(-0.0551525 -4.49294e-19 0.105643)
(-0.0551407 2.4403e-19 0.107721)
(-0.0549076 -4.15337e-20 0.109507)
(-0.054459 1.21923e-20 0.111005)
(-0.053803 1.72579e-20 0.112222)
(-0.0529528 8.88037e-21 0.11316)
(-0.051923 1.24821e-19 0.11382)
(-0.0507217 -8.05734e-20 0.114203)
(-0.0493467 4.26286e-19 0.114313)
(-0.0478019 -1.45368e-19 0.114161)
(-0.0461011 -1.78931e-20 0.113753)
(-0.0442546 1.55908e-19 0.113095)
(-0.0422687 4.93815e-20 0.112192)
(-0.0401498 5.22136e-19 0.111053)
(-0.0379029 1.77648e-19 0.109688)
(-0.0355291 -3.00659e-19 0.108108)
(-0.0330269 -1.32494e-19 0.106331)
(-0.0303937 3.33746e-19 0.104377)
(-0.0276256 -1.81189e-19 0.102275)
(-0.024717 -4.60946e-20 0.100056)
(-0.0216625 3.91215e-20 0.0977671)
(-0.0184621 1.23557e-20 0.0954647)
(-0.0151274 4.22254e-20 0.0932218)
(-0.0116912 1.60914e-20 0.0911257)
(-0.00821928 2.06399e-20 0.0892724)
(-0.00481933 -2.92824e-19 0.0877491)
(-0.00162844 2.37098e-19 0.0866054)
(0.00110722 3.70102e-19 0.0857065)
(0.00312493 7.51708e-20 0.084797)
(0.00462196 -3.2853e-19 0.0836922)
(0.00585459 2.211e-19 0.0823473)
(0.00686903 3.70011e-20 0.0808188)
(0.00762406 2.3368e-21 0.0790988)
(0.00820673 2.22182e-20 0.0771487)
(0.00868341 -3.19417e-19 0.0749963)
(0.0090354 -2.9516e-20 0.072676)
(0.00926915 2.54862e-19 0.0701912)
(0.00941796 3.04441e-19 0.0675474)
(0.00952747 -4.59629e-19 0.0647592)
(0.00965405 1.36005e-19 0.0618545)
(0.00982532 8.7719e-20 0.0588866)
(0.0100099 -2.06412e-20 0.0558999)
(0.0102258 -6.10167e-21 0.0529432)
(0.0103942 -2.47345e-20 0.0500952)
(0.010306 1.89879e-20 0.0472874)
(0.0100975 -1.57035e-19 0.0444407)
(0.00965205 2.34423e-19 0.041488)
(0.00914127 -7.44592e-20 0.0383317)
(0.00877148 -1.38739e-19 0.0350718)
(0.00855267 -1.57483e-20 0.0318884)
(0.00830602 9.41995e-20 0.0289759)
(0.00769344 2.60481e-20 0.026303)
(0.00686824 -1.71306e-20 0.0237489)
(0.00565992 4.91589e-20 0.0213384)
(0.00395593 -1.06658e-19 0.0190341)
(0.00137602 1.00102e-20 0.0163768)
(-0.00192816 8.06672e-21 0.0137895)
(-0.00741801 -2.64141e-20 0.0107962)
(-0.0145858 1.59884e-21 0.00662372)
(-0.0294129 2.07724e-20 0.00345593)
(-0.0447226 -2.28721e-20 -0.00668544)
(-0.0538115 -8.49457e-20 -0.0167424)
(-0.0486586 -4.16405e-18 -0.0257174)
(-0.134578 1.20625e-19 -0.0606596)
(-0.118628 -2.77576e-19 -0.0930533)
(-0.110483 -1.35437e-19 -0.1102)
(-0.0902634 1.54221e-19 -0.126057)
(-0.075122 1.87175e-19 -0.13334)
(-0.0593409 -5.46129e-20 -0.139477)
(-0.0451987 2.70721e-21 -0.141864)
(-0.032159 6.12319e-20 -0.143117)
(-0.0204376 -4.40725e-19 -0.143271)
(-0.00981557 9.96894e-20 -0.143097)
(-0.0926468 -2.09179e-23 0.000229771)
(-0.0938696 5.2584e-22 0.000687447)
(-0.0938112 1.24208e-20 0.0011581)
(-0.0935834 3.37471e-21 0.00166006)
(-0.0932748 -7.48903e-20 0.00218503)
(-0.0928907 -3.44734e-20 0.00274624)
(-0.09242 -4.49059e-20 0.00336084)
(-0.0918531 -2.17107e-21 0.00402796)
(-0.0911842 3.19722e-19 0.00475947)
(-0.090407 -6.66097e-20 0.00556735)
(-0.0895134 3.48931e-19 0.00646327)
(-0.0884928 3.57394e-20 0.00746025)
(-0.0873326 2.78499e-19 0.00857333)
(-0.0860191 -2.94419e-20 0.0098201)
(-0.0845378 3.16727e-19 0.0112212)
(-0.0828742 1.7802e-20 0.0128014)
(-0.0810149 1.8382e-19 0.0145901)
(-0.0789481 3.529e-19 0.0166231)
(-0.0766667 -2.76334e-19 0.0189437)
(-0.0741703 7.78584e-20 0.021604)
(-0.0714711 2.15788e-19 0.0246658)
(-0.0686008 2.74835e-19 0.0281995)
(-0.0656209 -3.62316e-20 0.0322802)
(-0.0626355 1.96101e-19 0.036977)
(-0.059801 1.16225e-20 0.0423327)
(-0.0573306 3.14318e-19 0.0483329)
(-0.055502 4.1681e-19 0.0548499)
(-0.0545716 -3.72852e-19 0.0615862)
(-0.0544894 -2.34479e-19 0.0681554)
(-0.0549603 4.79764e-20 0.0742733)
(-0.0556992 2.53165e-19 0.0798318)
(-0.056506 -6.70436e-20 0.0848344)
(-0.057254 1.16293e-19 0.089327)
(-0.0578664 5.12882e-19 0.0933633)
(-0.0582992 1.97754e-19 0.0969921)
(-0.0585292 1.43756e-19 0.100252)
(-0.0585464 1.30966e-19 0.103173)
(-0.0583479 -4.47329e-19 0.105774)
(-0.0579342 2.49499e-19 0.108067)
(-0.0573078 9.37609e-20 0.110061)
(-0.0564739 6.35101e-20 0.11176)
(-0.0554412 5.88113e-20 0.11317)
(-0.0542241 -3.1095e-20 0.114295)
(-0.052839 6.67626e-21 0.115134)
(-0.0512984 -9.16843e-19 0.115688)
(-0.0496063 3.97435e-19 0.115961)
(-0.0477657 5.62007e-19 0.115957)
(-0.0457841 2.15007e-20 0.115686)
(-0.0436699 5.02952e-20 0.115154)
(-0.0414301 -5.77708e-20 0.11437)
(-0.0390714 4.2909e-19 0.113344)
(-0.0365998 9.76856e-20 0.112088)
(-0.0340193 -3.86661e-19 0.110617)
(-0.0313323 -4.70692e-19 0.10895)
(-0.0285403 1.43026e-19 0.107108)
(-0.0256438 1.76829e-21 0.10512)
(-0.0226437 -7.63747e-20 0.10302)
(-0.0195426 -7.49816e-21 0.100848)
(-0.0163487 -6.49107e-20 0.0986549)
(-0.0130808 -5.09643e-21 0.0964972)
(-0.00977469 -4.03209e-20 0.0944384)
(-0.00649199 -9.71977e-22 0.0925396)
(-0.00332698 -3.22648e-19 0.0908426)
(-0.00040936 2.14155e-19 0.0893354)
(0.0021242 4.01443e-19 0.0879716)
(0.00423634 -2.00822e-19 0.0866259)
(0.0059662 -3.79172e-19 0.0851666)
(0.00740744 -3.6652e-19 0.0835511)
(0.0086039 -9.88393e-20 0.0817827)
(0.00956967 2.56453e-19 0.0798543)
(0.0103527 4.19967e-20 0.0777528)
(0.0109959 -2.89885e-19 0.0754865)
(0.011515 -1.08833e-19 0.0730716)
(0.0119269 2.43663e-19 0.0705178)
(0.0122593 -1.37561e-19 0.0678325)
(0.0125481 -1.24897e-19 0.0650268)
(0.0128277 2.30068e-19 0.0621241)
(0.0131111 4.89224e-20 0.0591635)
(0.0133826 -2.1871e-19 0.0561785)
(0.0136236 -8.68548e-20 0.0531965)
(0.0137924 1.52314e-19 0.0502416)
(0.0138169 3.60917e-20 0.0472736)
(0.0137003 -1.85521e-19 0.0442465)
(0.0134263 -8.03655e-20 0.0411444)
(0.0130674 1.47196e-19 0.0379412)
(0.0126902 -1.3206e-19 0.0346759)
(0.0122756 -8.91542e-20 0.0314347)
(0.0117524 9.11661e-20 0.0283127)
(0.0109542 1.9914e-20 0.0252795)
(0.00985172 -6.34142e-20 0.02226)
(0.0083264 -5.6985e-20 0.0192301)
(0.00627155 4.29886e-20 0.0162112)
(0.0035568 -2.72075e-20 0.0129434)
(0.000298888 -4.34164e-21 0.00973269)
(-0.00426019 -3.00308e-21 0.00616709)
(-0.0103681 2.39852e-20 0.000722899)
(-0.0211072 4.57391e-20 -0.0038493)
(-0.0325535 2.71336e-20 -0.0164312)
(-0.0381137 -2.56523e-19 -0.0270036)
(-0.0356645 -3.52792e-19 -0.0379045)
(-0.100632 1.19347e-19 -0.063376)
(-0.0985157 -1.86888e-19 -0.0818643)
(-0.0937431 1.23329e-19 -0.0985146)
(-0.0796358 3.24401e-19 -0.111535)
(-0.0679608 -1.90009e-20 -0.11914)
(-0.0552819 -3.8681e-19 -0.125669)
(-0.0433115 -1.01651e-19 -0.128978)
(-0.031675 3.23425e-19 -0.131091)
(-0.0205425 1.09129e-19 -0.132043)
(-0.0100159 -3.09154e-19 -0.132443)
(-0.09314 -2.72979e-23 0.000264053)
(-0.0943689 9.01332e-22 0.000789539)
(-0.0943323 2.18713e-20 0.00132967)
(-0.094136 6.88768e-20 0.00190352)
(-0.0938636 -1.4867e-20 0.00250238)
(-0.0935232 -8.09702e-21 0.00314491)
(-0.0931048 8.33647e-21 0.00384611)
(-0.0926014 5.50693e-20 0.00460544)
(-0.0920073 -3.92697e-19 0.00543617)
(-0.0913167 -4.2035e-19 0.00635127)
(-0.0905225 -3.20332e-19 0.00736369)
(-0.0896158 1.28924e-20 0.00848765)
(-0.0885863 -3.81503e-19 0.00973917)
(-0.0874227 -3.85388e-19 0.0111364)
(-0.0861138 -2.21305e-19 0.0127003)
(-0.0846492 -3.64019e-20 0.0144548)
(-0.08302 -2.68335e-19 0.0164277)
(-0.0812205 -1.6123e-19 0.0186512)
(-0.0792499 5.82365e-21 0.0211621)
(-0.0771151 -2.79055e-19 0.0240024)
(-0.0748346 -1.98262e-19 0.0272181)
(-0.0724436 -1.83757e-19 0.030857)
(-0.0700002 -2.75141e-19 0.0349637)
(-0.0675905 -2.7443e-19 0.0395702)
(-0.0653313 5.70575e-20 0.0446813)
(-0.0633651 -1.79044e-19 0.0502548)
(-0.0618427 9.16883e-19 0.0561782)
(-0.0608697 2.07809e-20 0.0622602)
(-0.0604305 -2.28291e-19 0.0682713)
(-0.0603948 -1.4797e-19 0.0740208)
(-0.060598 -1.26789e-19 0.0793971)
(-0.0608972 -4.86056e-19 0.0843582)
(-0.0611852 -5.67441e-19 0.0889053)
(-0.061387 1.74458e-19 0.0930589)
(-0.0614524 2.92237e-19 0.0968441)
(-0.0613494 8.68819e-20 0.100284)
(-0.0610587 6.32494e-19 0.103397)
(-0.0605697 -2.12715e-19 0.106195)
(-0.0598773 -9.58846e-20 0.108686)
(-0.0589808 2.58035e-19 0.110877)
(-0.057883 4.78584e-20 0.112771)
(-0.0565909 3.51026e-19 0.11437)
(-0.0551151 6.79058e-20 0.115677)
(-0.0534682 3.31803e-19 0.116691)
(-0.0516614 -3.28255e-19 0.117414)
(-0.0497025 1.1299e-19 0.117846)
(-0.0475983 4.16793e-19 0.117991)
(-0.0453576 9.20711e-20 0.117856)
(-0.0429897 3.96063e-19 0.11745)
(-0.040504 1.28846e-19 0.116781)
(-0.0379093 6.98174e-19 0.115862)
(-0.0352142 4.5096e-19 0.114706)
(-0.032426 9.1572e-20 0.113329)
(-0.0295508 4.03964e-19 0.111752)
(-0.0265947 4.57362e-19 0.109997)
(-0.0235635 -3.4745e-19 0.108092)
(-0.0204645 -1.04329e-19 0.106069)
(-0.0173072 1.40107e-19 0.103964)
(-0.0141069 7.02876e-20 0.101821)
(-0.0108877 1.5634e-19 0.0996833)
(-0.00768667 8.10447e-20 0.0975964)
(-0.00455773 3.99591e-19 0.095597)
(-0.0015723 -1.5573e-19 0.0937039)
(0.00119334 -3.51912e-20 0.0919281)
(0.00368082 2.72456e-19 0.0902316)
(0.0058336 4.59274e-20 0.0885355)
(0.00767048 -3.13853e-19 0.086774)
(0.00923712 -7.76104e-20 0.0849048)
(0.0105671 1.8283e-20 0.0829121)
(0.0116837 3.01899e-19 0.080787)
(0.0126181 5.84215e-20 0.0785239)
(0.0133997 -5.52262e-19 0.0761258)
(0.0140485 5.50874e-21 0.0736003)
(0.014583 5.39664e-19 0.0709543)
(0.0150252 1.00474e-19 0.0681939)
(0.0154001 -3.89295e-19 0.0653288)
(0.0157288 3.90812e-19 0.0623773)
(0.0160191 9.68349e-20 0.0593663)
(0.0162646 -2.14396e-19 0.0563219)
(0.0164545 5.83704e-20 0.053263)
(0.0165669 2.01523e-19 0.0501996)
(0.0165712 3.44377e-20 0.0471163)
(0.0164675 -3.11079e-19 0.0439898)
(0.0162562 3.0524e-19 0.0408066)
(0.0159584 4.86901e-20 0.0375574)
(0.0155986 -2.37318e-19 0.0342596)
(0.0151611 7.24932e-20 0.0309468)
(0.0146009 1.97008e-19 0.0276582)
(0.0138257 3.55975e-20 0.0243679)
(0.0127904 -5.55386e-20 0.0210471)
(0.0114683 1.06758e-19 0.0176428)
(0.00973879 -5.37101e-21 0.0141436)
(0.00753459 6.78302e-21 0.0102795)
(0.00475928 3.73202e-20 0.00604975)
(0.000772657 5.17097e-21 0.0013781)
(-0.00464629 2.67545e-20 -0.00504728)
(-0.0134351 1.37693e-19 -0.0105358)
(-0.022001 -7.95544e-20 -0.0239678)
(-0.0247493 -3.9594e-19 -0.0335632)
(-0.0253863 -7.31118e-18 -0.0434088)
(-0.080479 -1.12744e-19 -0.0660185)
(-0.0830122 -4.04469e-19 -0.0744468)
(-0.0807047 -6.32147e-20 -0.0901751)
(-0.0696622 3.11941e-19 -0.100243)
(-0.0607333 1.25199e-20 -0.107589)
(-0.0501778 -2.97601e-19 -0.113838)
(-0.0399429 -7.05962e-20 -0.1176)
(-0.0296318 3.98223e-19 -0.120182)
(-0.0194672 -3.27856e-19 -0.121658)
(-0.00959219 -1.86438e-19 -0.122408)
(-0.0936966 -6.22084e-23 0.00029354)
(-0.094932 1.0734e-21 0.000877441)
(-0.0949191 3.26751e-20 0.00147776)
(-0.0947574 3.91709e-19 0.00211309)
(-0.0945256 -1.98151e-21 0.00277654)
(-0.0942341 -3.94984e-20 0.00349031)
(-0.0938739 -5.25651e-22 0.00426703)
(-0.09344 8.78409e-21 0.00510711)
(-0.0929275 3.71551e-19 0.00602475)
(-0.0923314 7.99858e-20 0.00703372)
(-0.0916458 3.72115e-19 0.00814805)
(-0.0908632 9.88915e-20 0.00938294)
(-0.089975 3.80205e-19 0.010755)
(-0.0889723 5.74239e-20 0.0122828)
(-0.0878463 3.74004e-19 0.0139865)
(-0.0865894 1.10981e-19 0.0158891)
(-0.0851963 3.05902e-19 0.0180157)
(-0.0836648 4.23711e-19 0.020394)
(-0.0819977 3.2512e-19 0.0230544)
(-0.0802048 2.20462e-19 0.0260291)
(-0.0783062 3.04062e-19 0.029351)
(-0.0763347 3.16009e-19 0.0330509)
(-0.0743396 -2.52462e-19 0.0371527)
(-0.0723879 -4.07129e-19 0.0416666)
(-0.0705628 3.9024e-19 0.0465791)
(-0.0689576 -4.50742e-19 0.0518422)
(-0.0676587 7.10601e-19 0.057365)
(-0.0667191 4.31893e-19 0.0630161)
(-0.0661296 1.33283e-19 0.0686448)
(-0.0658206 2.18594e-19 0.0741163)
(-0.0656923 2.82088e-19 0.0793354)
(-0.0656429 -1.24023e-19 0.0842483)
(-0.0655852 -4.39726e-19 0.0888332)
(-0.0654517 -4.63813e-19 0.0930868)
(-0.0651932 -1.3192e-21 0.0970145)
(-0.0647759 -9.06674e-20 0.100624)
(-0.0641773 5.24503e-20 0.103923)
(-0.0633841 4.83048e-20 0.106916)
(-0.0623891 -4.62776e-19 0.109607)
(-0.0611907 -1.31253e-19 0.111996)
(-0.0597915 -2.08506e-19 0.114085)
(-0.0581983 8.28421e-20 0.115873)
(-0.0564214 -8.7487e-20 0.117362)
(-0.0544728 -1.55919e-20 0.118549)
(-0.0523645 2.73141e-19 0.119435)
(-0.0501071 -5.02786e-19 0.120019)
(-0.0477106 -1.62107e-19 0.120306)
(-0.0451854 -1.32289e-19 0.1203)
(-0.0425426 7.51618e-20 0.120011)
(-0.0397936 5.06187e-20 0.119448)
(-0.0369493 -3.26153e-19 0.118624)
(-0.0340207 3.75372e-20 0.117553)
(-0.031018 5.13001e-19 0.116253)
(-0.0279507 4.42579e-19 0.114743)
(-0.0248284 -3.66159e-20 0.113048)
(-0.0216608 7.15323e-20 0.111195)