/*--------------------------------*- C++ -*----------------------------------*\
| =========                 |                                                 |
| \\      /  F ield         | OpenFOAM: The Open Source CFD Toolbox           |
|  \\    /   O peration     | Version:  v2106                                 |
|   \\  /    A nd           | Website:  www.openfoam.com                      |
|    \\/     M anipulation  |                                                 |
\*---------------------------------------------------------------------------*/
FoamFile
{
    version     2.0;
    format      ascii;
    arch        "LSB;label=32;scalar=64";
    class       volScalarField;
    location    "0.2";
    object      p;
}
// * * * * * * * * * * * * * * * * * * * * * * * * * * * * * * * * * * * * * //

dimensions      [1 -1 -2 0 0 0 0];

internalField   nonuniform List<scalar> 
29678
(
14641.5
14494.3
14347.2
14200
14052.9
13905.7
13758.6
13611.4
13464.3
13317.1
13170
13022.8
12875.7
12728.5
12581.4
12434.2
12287.1
12139.9
11992.8
11845.6
11698.5
11551.3
11404.2
11257
11109.9
10962.7
10815.6
10668.4
10521.3
10374.1
10227
10079.8
9932.7
9785.55
9638.4
9491.25
9344.1
9196.95
9049.81
8902.66
8755.51
8608.36
8461.21
8314.06
8166.92
8019.77
7872.62
7725.47
7578.33
7431.18
7284.03
7136.88
6989.73
6842.59
6695.44
6548.29
6401.14
6253.99
6106.85
5959.7
5812.55
5665.4
5518.25
5371.11
5223.96
5076.81
4929.66
4782.51
4635.36
4488.21
4341.06
4193.91
4046.76
3899.61
3752.46
3605.31
3458.16
3311.01
3163.86
3016.7
2869.55
2722.4
2575.24
2428.09
2280.94
2133.78
1986.63
1839.47
1692.31
1545.16
1398
1250.84
1103.69
956.529
809.371
662.213
515.055
367.896
220.739
73.5766
-0.0912725
-0.2758
-0.45976
-0.643698
-0.827646
-1.0116
-1.19555
-1.3795
-1.56345
-1.7474
14641.6
14494.4
14347.3
14200.1
14053
13905.8
13758.7
13611.5
13464.4
13317.2
13170.1
13022.9
12875.8
12728.6
12581.5
12434.3
12287.2
12140
11992.9
11845.7
11698.6
11551.4
11404.3
11257.2
11110
10962.9
10815.7
10668.6
10521.4
10374.3
10227.1
10080
9932.84
9785.69
9638.55
9491.4
9344.26
9197.11
9049.97
8902.82
8755.68
8608.53
8461.39
8314.24
8167.1
8019.96
7872.81
7725.67
7578.53
7431.38
7284.24
7137.09
6989.95
6842.81
6695.66
6548.52
6401.38
6254.23
6107.09
5959.94
5812.8
5665.66
5518.51
5371.37
5224.22
5077.07
4929.93
4782.78
4635.63
4488.49
4341.34
4194.19
4047.04
3899.89
3752.73
3605.58
3458.43
3311.27
3164.12
3016.96
2869.8
2722.64
2575.48
2428.32
2281.16
2133.99
1986.83
1839.66
1692.49
1545.32
1398.15
1250.98
1103.81
956.638
809.464
662.29
515.115
367.94
220.767
73.5799
-0.089703
-0.275583
-0.459546
-0.64352
-0.827494
-1.01147
-1.19545
-1.37943
-1.56341
-1.74738
14641.7
14494.5
14347.4
14200.2
14053.1
13905.9
13758.8
13611.6
13464.5
13317.3
13170.2
13023
12875.9
12728.7
12581.6
12434.4
12287.3
12140.1
11993
11845.8
11698.7
11551.6
11404.4
11257.3
11110.1
10963
10815.8
10668.7
10521.5
10374.4
10227.3
10080.1
9932.98
9785.83
9638.69
9491.55
9344.41
9197.27
9050.13
8902.99
8755.84
8608.7
8461.56
8314.42
8167.28
8020.14
7873
7725.86
7578.73
7431.59
7284.45
7137.31
6990.17
6843.03
6695.89
6548.75
6401.61
6254.47
6107.33
5960.19
5813.05
5665.91
5518.77
5371.63
5224.48
5077.34
4930.2
4783.05
4635.91
4488.76
4341.61
4194.46
4047.31
3900.16
3753.01
3605.85
3458.7
3311.54
3164.38
3017.22
2870.05
2722.89
2575.72
2428.55
2281.38
2134.21
1987.03
1839.85
1692.67
1545.49
1398.31
1251.12
1103.94
956.748
809.558
662.368
515.176
367.983
220.796
73.5831
-0.0882213
-0.275364
-0.45934
-0.643342
-0.827342
-1.01134
-1.19535
-1.37936
-1.56336
-1.74737
14641.7
14494.6
14347.4
14200.3
14053.2
13906
13758.9
13611.7
13464.6
13317.4
13170.3
13023.1
12876
12728.8
12581.7
12434.5
12287.4
12140.2
11993.1
11846
11698.8
11551.7
11404.5
11257.4
11110.2
10963.1
10816
10668.8
10521.7
10374.5
10227.4
10080.3
9933.12
9785.98
9638.84
9491.7
9344.56
9197.42
9050.29
8903.15
8756.01
8608.88
8461.74
8314.6
8167.47
8020.33
7873.2
7726.06
7578.93
7431.79
7284.66
7137.52
6990.39
6843.25
6696.12
6548.98
6401.85
6254.71
6107.57
5960.44
5813.3
5666.16
5519.03
5371.89
5224.75
5077.61
4930.47
4783.32
4636.18
4489.04
4341.89
4194.74
4047.59
3900.44
3753.28
3606.13
3458.97
3311.81
3164.64
3017.48
2870.31
2723.14
2575.96
2428.78
2281.6
2134.42
1987.24
1840.05
1692.85
1545.66
1398.46
1251.26
1104.06
956.859
809.653
662.446
515.238
368.027
220.825
73.5864
-0.0867033
-0.275142
-0.459132
-0.643161
-0.827187
-1.01122
-1.19525
-1.37928
-1.56332
-1.74736
14641.8
14494.7
14347.5
14200.4
14053.2
13906.1
13758.9
13611.8
13464.7
13317.5
13170.4
13023.2
12876.1
12728.9
12581.8
12434.6
12287.5
12140.4
11993.2
11846.1
11698.9
11551.8
11404.6
11257.5
11110.4
10963.2
10816.1
10668.9
10521.8
10374.7
10227.5
10080.4
9933.26
9786.12
9638.98
9491.85
9344.71
9197.58
9050.45
8903.31
8756.18
8609.05
8461.91
8314.78
8167.65
8020.52
7873.39
7726.26
7579.13
7431.99
7284.86
7137.73
6990.6
6843.47
6696.34
6549.21
6402.08
6254.95
6107.82
5960.69
5813.55
5666.42
5519.29
5372.15
5225.01
5077.88
4930.74
4783.6
4636.46
4489.31
4342.17
4195.02
4047.87
3900.72
3753.56
3606.4
3459.24
3312.08
3164.91
3017.74
2870.57
2723.39
2576.21
2429.02
2281.83
2134.64
1987.44
1840.24
1693.04
1545.83
1398.62
1251.41
1104.19
956.971
809.75
662.526
515.3
368.072
220.854
73.5898
-0.0851567
-0.274915
-0.458921
-0.642977
-0.827029
-1.01109
-1.19515
-1.37921
-1.56327
-1.74734
14641.9
14494.8
14347.6
14200.5
14053.3
13906.2
13759
13611.9
13464.7
13317.6
13170.5
13023.3
12876.2
12729
12581.9
12434.7
12287.6
12140.5
11993.3
11846.2
11699
11551.9
11404.8
11257.6
11110.5
10963.3
10816.2
10669.1
10521.9
10374.8
10227.7
10080.5
9933.4
9786.26
9639.13
9492
9344.87
9197.74
9050.61
8903.48
8756.35
8609.22
8462.09
8314.96
8167.83
8020.71
7873.58
7726.45
7579.33
7432.2
7285.07
7137.95
6990.82
6843.7
6696.57
6549.44
6402.32
6255.19
6108.06
5960.93
5813.81
5666.68
5519.55
5372.41
5225.28
5078.15
4931.01
4783.87
4636.73
4489.59
4342.45
4195.3
4048.15
3901
3753.84
3606.68
3459.52
3312.35
3165.18
3018.01
2870.83
2723.64
2576.45
2429.26
2282.06
2134.86
1987.65
1840.44
1693.23
1546.01
1398.78
1251.55
1104.32
957.086
809.848
662.607
515.364
368.117
220.884
73.5932
-0.0835783
-0.274683
-0.458705
-0.642788
-0.826867
-1.01095
-1.19504
-1.37913
-1.56323
-1.74733
14642
14494.9
14347.7
14200.6
14053.4
13906.3
13759.1
13612
13464.8
13317.7
13170.6
13023.4
12876.3
12729.1
12582
12434.8
12287.7
12140.6
11993.4
11846.3
11699.1
11552
11404.9
11257.7
11110.6
10963.5
10816.3
10669.2
10522.1
10374.9
10227.8
10080.7
9933.53
9786.4
9639.28
9492.15
9345.02
9197.89
9050.76
8903.64
8756.51
8609.39
8462.26
8315.14
8168.02
8020.89
7873.77
7726.65
7579.52
7432.4
7285.28
7138.16
6991.04
6843.92
6696.8
6549.67
6402.55
6255.43
6108.31
5961.18
5814.06
5666.93
5519.81
5372.68
5225.55
5078.42
4931.29
4784.15
4637.01
4489.87
4342.73
4195.58
4048.43
3901.28
3754.13
3606.96
3459.8
3312.63
3165.46
3018.28
2871.09
2723.9
2576.71
2429.51
2282.3
2135.09
1987.87
1840.65
1693.42
1546.19
1398.95
1251.7
1104.46
957.205
809.949
662.691
515.43
368.164
220.915
73.5967
-0.0819619
-0.274443
-0.458482
-0.642593
-0.8267
-1.01081
-1.19493
-1.37906
-1.56318
-1.74731
14642.1
14495
14347.8
14200.7
14053.5
13906.4
13759.2
13612.1
13464.9
13317.8
13170.7
13023.5
12876.4
12729.2
12582.1
12434.9
12287.8
12140.7
11993.5
11846.4
11699.3
11552.1
11405
11257.8
11110.7
10963.6
10816.5
10669.3
10522.2
10375.1
10227.9
10080.8
9933.67
9786.55
9639.42
9492.29
9345.17
9198.05
9050.92
8903.8
8756.68
8609.56
8462.44
8315.32
8168.2
8021.08
7873.96
7726.84
7579.72
7432.61
7285.49
7138.37
6991.26
6844.14
6697.02
6549.91
6402.79
6255.67
6108.55
5961.43
5814.31
5667.19
5520.07
5372.95
5225.82
5078.69
4931.56
4784.43
4637.29
4490.16
4343.02
4195.87
4048.72
3901.57
3754.41
3607.25
3460.08
3312.91
3165.73
3018.55
2871.36
2724.17
2576.96
2429.76
2282.54
2135.32
1988.09
1840.86
1693.62
1546.37
1399.12
1251.86
1104.59
957.326
810.053
662.777
515.498
368.213
220.947
73.6003
-0.0803002
-0.274194
-0.458251
-0.642391
-0.826527
-1.01067
-1.19482
-1.37897
-1.56313
-1.74729
14642.2
14495.1
14347.9
14200.8
14053.6
13906.5
13759.3
13612.2
13465
13317.9
13170.7
13023.6
12876.5
12729.3
12582.2
12435
12287.9
12140.8
11993.6
11846.5
11699.4
11552.2
11405.1
11258
11110.8
10963.7
10816.6
10669.4
10522.3
10375.2
10228.1
10080.9
9933.81
9786.69
9639.56
9492.44
9345.32
9198.2
9051.08
8903.96
8756.84
8609.73
8462.61
8315.49
8168.38
8021.26
7874.15
7727.04
7579.92
7432.81
7285.7
7138.59
6991.47
6844.36
6697.25
6550.14
6403.03
6255.91
6108.8
5961.68
5814.57
5667.45
5520.33
5373.21
5226.09
5078.97
4931.84
4784.71
4637.58
4490.44
4343.31
4196.16
4049.01
3901.86
3754.71
3607.54
3460.38
3313.2
3166.02
3018.83
2871.64
2724.44
2577.23
2430.01
2282.79
2135.56
1988.32
1841.07
1693.82
1546.56
1399.29
1252.02
1104.74
957.452
810.161
662.866
515.568
368.263
220.98
73.6041
-0.0785852
-0.273935
-0.45801
-0.64218
-0.826346
-1.01052
-1.1947
-1.37889
-1.56308
-1.74728
14642.3
14495.1
14348
14200.8
14053.7
13906.6
13759.4
13612.3
13465.1
13318
13170.8
13023.7
12876.6
12729.4
12582.3
12435.1
12288
12140.9
11993.7
11846.6
11699.5
11552.3
11405.2
11258.1
11110.9
10963.8
10816.7
10669.6
10522.4
10375.3
10228.2
10081.1
9933.95
9786.83
9639.71
9492.59
9345.47
9198.35
9051.24
8904.12
8757.01
8609.89
8462.78
8315.67
8168.56
8021.45
7874.34
7727.23
7580.12
7433.01
7285.91
7138.8
6991.69
6844.58
6697.48
6550.37
6403.26
6256.15
6109.05
5961.94
5814.82
5667.71
5520.6
5373.48
5226.37
5079.25
4932.12
4785
4637.87
4490.74
4343.6
4196.46
4049.31
3902.16
3755
3607.84
3460.67
3313.5
3166.31
3019.12
2871.92
2724.72
2577.5
2430.28
2283.05
2135.81
1988.56
1841.3
1694.03
1546.76
1399.47
1252.18
1104.89
957.583
810.274
662.959
515.641
368.315
221.014
73.6079
-0.0768082
-0.273664
-0.457758
-0.64196
-0.826157
-1.01036
-1.19458
-1.3788
-1.56303
-1.74726
14642.4
14495.2
14348.1
14200.9
14053.8
13906.6
13759.5
13612.4
13465.2
13318.1
13170.9
13023.8
12876.7
12729.5
12582.4
12435.2
12288.1
12141
11993.8
11846.7
11699.6
11552.4
11405.3
11258.2
11111.1
10963.9
10816.8
10669.7
10522.6
10375.4
10228.3
10081.2
9934.08
9786.97
9639.85
9492.73
9345.62
9198.51
9051.39
8904.28
8757.17
8610.06
8462.95
8315.85
8168.74
8021.63
7874.53
7727.42
7580.32
7433.22
7286.11
7139.01
6991.91
6844.81
6697.7
6550.6
6403.5
6256.4
6109.29
5962.19
5815.08
5667.98
5520.87
5373.76
5226.64
5079.53
4932.41
4785.29
4638.16
4491.03
4343.9
4196.76
4049.61
3902.46
3755.31
3608.14
3460.97
3313.8
3166.61
3019.42
2872.22
2725
2577.78
2430.55
2283.31
2136.06
1988.8
1841.53
1694.25
1546.96
1399.66
1252.36
1105.04
957.719
810.391
663.056
515.717
368.37
221.05
73.612
-0.0749598
-0.273379
-0.457494
-0.641728
-0.825958
-1.0102
-1.19445
-1.37871
-1.56297
-1.74724
14642.5
14495.3
14348.2
14201
14053.9
13906.7
13759.6
13612.4
13465.3
13318.2
13171
13023.9
12876.7
12729.6
12582.5
12435.3
12288.2
12141.1
11993.9
11846.8
11699.7
11552.6
11405.4
11258.3
11111.2
10964.1
10816.9
10669.8
10522.7
10375.6
10228.4
10081.3
9934.22
9787.1
9639.99
9492.88
9345.77
9198.66
9051.55
8904.44
8757.33
8610.23
8463.12
8316.02
8168.92
8021.82
7874.72
7727.62
7580.52
7433.42
7286.32
7139.22
6992.13
6845.03
6697.93
6550.84
6403.74
6256.64
6109.54
5962.44
5815.34
5668.24
5521.14
5374.03
5226.92
5079.81
4932.7
4785.58
4638.46
4491.33
4344.2
4197.06
4049.92
3902.77
3755.62
3608.46
3461.29
3314.11
3166.92
3019.72
2872.52
2725.3
2578.07
2430.83
2283.59
2136.33
1989.05
1841.77
1694.48
1547.17
1399.86
1252.54
1105.2
957.863
810.514
663.158
515.797
368.427
221.088
73.6162
-0.0730294
-0.273078
-0.457215
-0.641483
-0.825748
-1.01003
-1.19431
-1.37861
-1.56291
-1.74722
14642.6
14495.4
14348.3
14201.1
14054
13906.8
13759.7
13612.5
13465.4
13318.3
13171.1
13024
12876.8
12729.7
12582.6
12435.4
12288.3
12141.2
11994
11846.9
11699.8
11552.7
11405.5
11258.4
11111.3
10964.2
10817
10669.9
10522.8
10375.7
10228.6
10081.5
9934.35
9787.24
9640.13
9493.02
9345.91
9198.81
9051.7
8904.6
8757.5
8610.39
8463.29
8316.19
8169.1
8022
7874.9
7727.81
7580.71
7433.62
7286.53
7139.44
6992.34
6845.25
6698.16
6551.07
6403.98
6256.88
6109.79
5962.7
5815.6
5668.51
5521.41
5374.31
5227.2
5080.1
4932.99
4785.88
4638.76
4491.64
4344.51
4197.38
4050.24
3903.09
3755.94
3608.78
3461.61
3314.43
3167.24
3020.04
2872.83
2725.61
2578.37
2431.13
2283.87
2136.6
1989.32
1842.02
1694.72
1547.4
1400.07
1252.73
1105.37
958.013
810.643
663.265
515.882
368.487
221.128
73.6206
-0.0710056
-0.272759
-0.456919
-0.641224
-0.825525
-1.00984
-1.19417
-1.37851
-1.56285
-1.7472
14642.6
14495.5
14348.3
14201.2
14054.1
13906.9
13759.8
13612.6
13465.5
13318.3
13171.2
13024.1
12876.9
12729.8
12582.7
12435.5
12288.4
12141.3
11994.1
11847
11699.9
11552.8
11405.6
11258.5
11111.4
10964.3
10817.2
10670
10522.9
10375.8
10228.7
10081.6
9934.48
9787.37
9640.27
9493.16
9346.06
9198.96
9051.85
8904.75
8757.66
8610.56
8463.46
8316.37
8169.27
8022.18
7875.09
7728
7580.91
7433.82
7286.73
7139.65
6992.56
6845.47
6698.39
6551.3
6404.22
6257.13
6110.04
5962.95
5815.86
5668.77
5521.68
5374.59
5227.49
5080.39
4933.28
4786.18
4639.06
4491.95
4344.82
4197.69
4050.56
3903.41
3756.26
3609.1
3461.93
3314.75
3167.56
3020.36
2873.15
2725.92
2578.69
2431.43
2284.17
2136.89
1989.6
1842.29
1694.97
1547.63
1400.29
1252.93
1105.55
958.172
810.78
663.379
515.971
368.551
221.17
73.6253
-0.0688758
-0.272419
-0.456605
-0.640947
-0.825288
-1.00964
-1.19401
-1.37839
-1.56278
-1.74717
14642.7
14495.6
14348.4
14201.3
14054.1
13907
13759.9
13612.7
13465.6
13318.4
13171.3
13024.2
12877
12729.9
12582.8
12435.6
12288.5
12141.4
11994.2
11847.1
11700
11552.9
11405.7
11258.6
11111.5
10964.4
10817.3
10670.2
10523
10375.9
10228.8
10081.7
9934.61
9787.51
9640.4
9493.3
9346.2
9199.1
9052.01
8904.91
8757.81
8610.72
8463.63
8316.54
8169.45
8022.36
7875.28
7728.19
7581.11
7434.02
7286.94
7139.86
6992.78
6845.7
6698.62
6551.54
6404.46
6257.37
6110.29
5963.21
5816.13
5669.04
5521.96
5374.87
5227.78
5080.68
4933.58
4786.48
4639.37
4492.26
4345.14
4198.02
4050.89
3903.75
3756.6
3609.44
3462.27
3315.09
3167.9
3020.7
2873.48
2726.26
2579.01
2431.75
2284.48
2137.19
1989.89
1842.57
1695.23
1547.88
1400.52
1253.14
1105.75
958.341
810.925
663.5
516.066
368.62
221.215
73.6302
-0.0666258
-0.272056
-0.456269
-0.640652
-0.825034
-1.00943
-1.19385
-1.37828
-1.56271
-1.74715
14642.8
14495.7
14348.5
14201.4
14054.2
13907.1
13759.9
13612.8
13465.7
13318.5
13171.4
13024.2
12877.1
12730
12582.8
12435.7
12288.6
12141.5
11994.3
11847.2
11700.1
11553
11405.9
11258.7
11111.6
10964.5
10817.4
10670.3
10523.2
10376.1
10229
10081.8
9934.74
9787.64
9640.54
9493.44
9346.34
9199.25
9052.16
8905.06
8757.97
8610.88
8463.8
8316.71
8169.62
8022.54
7875.46
7728.38
7581.3
7434.22
7287.15
7140.07
6992.99
6845.92
6698.84
6551.77
6404.7
6257.62
6110.55
5963.47
5816.39
5669.31
5522.23
5375.15
5228.07
5080.98
4933.89
4786.79
4639.69
4492.58
4345.47
4198.35
4051.22
3904.09
3756.94
3609.79
3462.62
3315.44
3168.25
3021.05
2873.83
2726.6
2579.35
2432.09
2284.81
2137.51
1990.19
1842.86
1695.51
1548.15
1400.76
1253.36
1105.95
958.521
811.08
663.629
516.168
368.692
221.263
73.6355
-0.06424
-0.271665
-0.45591
-0.640335
-0.824762
-1.00921
-1.19367
-1.37815
-1.56263
-1.74712
14642.9
14495.7
14348.6
14201.4
14054.3
13907.2
13760
13612.9
13465.7
13318.6
13171.5
13024.3
12877.2
12730.1
12582.9
12435.8
12288.7
12141.6
11994.4
11847.3
11700.2
11553.1
11406
11258.8
11111.7
10964.6
10817.5
10670.4
10523.3
10376.2
10229.1
10082
9934.87
9787.77
9640.67
9493.58
9346.49
9199.39
9052.3
8905.21
8758.13
8611.04
8463.96
8316.88
8169.8
8022.72
7875.64
7728.57
7581.49
7434.42
7287.35
7140.28
6993.21
6846.14
6699.07
6552
6404.94
6257.87
6110.8
5963.73
5816.66
5669.59
5522.52
5375.44
5228.36
5081.28
4934.19
4787.11
4640.01
4492.91
4345.8
4198.69
4051.57
3904.44
3757.3
3610.15
3462.98
3315.81
3168.62
3021.41
2874.2
2726.96
2579.71
2432.44
2285.15
2137.85
1990.52
1843.17
1695.81
1548.43
1401.02
1253.6
1106.17
958.713
811.246
663.767
516.277
368.771
221.314
73.6411
-0.0617007
-0.271249
-0.455524
-0.639995
-0.82447
-1.00897
-1.19348
-1.37801
-1.56255
-1.7471
14643
14495.8
14348.7
14201.5
14054.4
13907.2
13760.1
13613
13465.8
13318.7
13171.6
13024.4
12877.3
12730.2
12583
12435.9
12288.8
12141.7
11994.5
11847.4
11700.3
11553.2
11406.1
11258.9
11111.8
10964.7
10817.6
10670.5
10523.4
10376.3
10229.2
10082.1
9935
9787.9
9640.81
9493.71
9346.62
9199.54
9052.45
8905.36
8758.28
8611.2
8464.12
8317.05
8169.97
8022.9
7875.82
7728.75
7581.69
7434.62
7287.55
7140.49
6993.42
6846.36
6699.3
6552.24
6405.18
6258.11
6111.05
5963.99
5816.93
5669.86
5522.8
5375.73
5228.66
5081.58
4934.51
4787.42
4640.34
4493.24
4346.14
4199.04
4051.92
3904.8
3757.66
3610.52
3463.36
3316.18
3169
3021.79
2874.58
2727.34
2580.08
2432.81
2285.51
2138.2
1990.86
1843.5
1696.12
1548.72
1401.3
1253.86
1106.4
958.92
811.425
663.916
516.394
368.855
221.369
73.6471
-0.0589879
-0.270797
-0.455108
-0.639628
-0.824155
-1.00871
-1.19328
-1.37786
-1.56246
-1.74706
14643
14495.9
14348.8
14201.6
14054.5
13907.3
13760.2
13613
13465.9
13318.8
13171.6
13024.5
12877.4
12730.2
12583.1
12436
12288.9
12141.7
11994.6
11847.5
11700.4
11553.3
11406.2
11259
11111.9
10964.8
10817.7
10670.6
10523.5
10376.4
10229.3
10082.2
9935.12
9788.03
9640.94
9493.85
9346.76
9199.68
9052.59
8905.51
8758.43
8611.36
8464.28
8317.21
8170.14
8023.07
7876
7728.94
7581.88
7434.81
7287.75
7140.7
6993.64
6846.58
6699.53
6552.47
6405.42
6258.36
6111.31
5964.25
5817.2
5670.14
5523.08
5376.02
5228.96
5081.89
4934.82
4787.75
4640.67
4493.59
4346.49
4199.39
4052.28
3905.17
3758.04
3610.9
3463.74
3316.57
3169.39
3022.19
2874.97
2727.73
2580.48
2433.2
2285.9
2138.57
1991.23
1843.86
1696.46
1549.04
1401.6
1254.14
1106.65
959.142
811.617
664.076
516.521
368.946
221.429
73.6535
-0.0560787
-0.270308
-0.454658
-0.639232
-0.823816
-1.00843
-1.19306
-1.37771
-1.56237
-1.74703
14643.1
14496
14348.8
14201.7
14054.5
13907.4
13760.3
13613.1
13466
13318.9
13171.7
13024.6
12877.5
12730.3
12583.2
12436.1
12289
12141.8
11994.7
11847.6
11700.5
11553.4
11406.3
11259.1
11112
10964.9
10817.8
10670.7
10523.6
10376.5
10229.4
10082.3
9935.24
9788.15
9641.06
9493.98
9346.9
9199.82
9052.74
8905.66
8758.59
8611.51
8464.44
8317.37
8170.31
8023.25
7876.18
7729.12
7582.07
7435.01
7287.95
7140.9
6993.85
6846.8
6699.75
6552.7
6405.66
6258.61
6111.56
5964.52
5817.47
5670.42
5523.37
5376.32
5229.26
5082.21
4935.15
4788.08
4641.01
4493.93
4346.85
4199.76
4052.66
3905.55
3758.43
3611.29
3464.14
3316.98
3169.8
3022.6
2875.39
2728.15
2580.89
2433.61
2286.3
2138.97
1991.62
1844.23
1696.82
1549.39
1401.92
1254.43
1106.92
959.383
811.826
664.251
516.659
369.045
221.495
73.6605
-0.0529477
-0.269778
-0.454172
-0.638803
-0.823449
-1.00812
-1.19282
-1.37754
-1.56226
-1.747
14643.2
14496.1
14348.9
14201.8
14054.6
13907.5
13760.3
13613.2
13466.1
13318.9
13171.8
13024.7
12877.5
12730.4
12583.3
12436.2
12289
12141.9
11994.8
11847.7
11700.6
11553.5
11406.3
11259.2
11112.1
10965
10817.9
10670.8
10523.7
10376.6
10229.5
10082.5
9935.36
9788.27
9641.19
9494.11
9347.03
9199.95
9052.88
8905.8
8758.73
8611.67
8464.6
8317.54
8170.48
8023.42
7876.36
7729.31
7582.25
7435.2
7288.15
7141.11
6994.06
6847.02
6699.98
6552.94
6405.9
6258.86
6111.82
5964.78
5817.74
5670.7
5523.66
5376.61
5229.57
5082.52
4935.47
4788.42
4641.35
4494.29
4347.21
4200.13
4053.04
3905.94
3758.83
3611.7
3464.56
3317.4
3170.23
3023.04
2875.82
2728.59
2581.33
2434.05
2286.74
2139.4
1992.03
1844.64
1697.21
1549.75
1402.27
1254.75
1107.21
959.645
812.053
664.44
516.81
369.153
221.566
73.668
-0.0495665
-0.269201
-0.453644
-0.638338
-0.823052
-1.0078
-1.19256
-1.37735
-1.56215
-1.74696
14643.3
14496.1
14349
14201.8
14054.7
13907.6
13760.4
13613.3
13466.1
13319
13171.9
13024.7
12877.6
12730.5
12583.4
12436.2
12289.1
12142
11994.9
11847.8
11700.7
11553.6
11406.4
11259.3
11112.2
10965.1
10818
10670.9
10523.8
10376.7
10229.7
10082.6
9935.48
9788.4
9641.31
9494.24
9347.16
9200.09
9053.01
8905.95
8758.88
8611.82
8464.75
8317.7
8170.64
8023.59
7876.53
7729.48
7582.44
7435.39
7288.35
7141.31
6994.27
6847.24
6700.2
6553.17
6406.13
6259.1
6112.07
5965.04
5818.01
5670.98
5523.95
5376.92
5229.88
5082.84
4935.8
4788.76
4641.71
4494.65
4347.59
4200.51
4053.43
3906.34
3759.24
3612.12
3464.99
3317.84
3170.68
3023.49
2876.28
2729.05
2581.79
2434.51
2287.19
2139.85
1992.48
1845.07
1697.63
1550.15
1402.64
1255.1
1107.53
959.93
812.301
664.648
516.975
369.272
221.644
73.6762
-0.045908
-0.26857
-0.45307
-0.637834
-0.822623
-1.00744
-1.19229
-1.37716
-1.56204
-1.74692
14643.3
14496.2
14349.1
14201.9
14054.8
13907.6
13760.5
13613.4
13466.2
13319.1
13172
13024.8
12877.7
12730.6
12583.4
12436.3
12289.2
12142.1
11995
11847.9
11700.7
11553.6
11406.5
11259.4
11112.3
10965.2
10818.1
10671
10523.9
10376.9
10229.8
10082.7
9935.59
9788.51
9641.44
9494.36
9347.29
9200.22
9053.15
8906.08
8759.02
8611.96
8464.91
8317.85
8170.8
8023.75
7876.71
7729.66
7582.62
7435.58
7288.55
7141.51
6994.48
6847.45
6700.42
6553.4
6406.37
6259.35
6112.33
5965.31
5818.28
5671.26
5524.24
5377.22
5230.19
5083.17
4936.14
4789.1
4642.06
4495.02
4347.97
4200.91
4053.84
3906.76
3759.67
3612.56
3465.44
3318.3
3171.15
3023.97
2876.76
2729.54
2582.28
2435
2287.68
2140.34
1992.95
1845.53
1698.08
1550.58
1403.05
1255.48
1107.88
960.242
812.573
664.877
517.156
369.402
221.73
73.6851
-0.0419322
-0.267877
-0.452447
-0.637286
-0.822159
-1.00706
-1.19199
-1.37694
-1.56191
-1.74688
14643.4
14496.3
14349.1
14202
14054.8
13907.7
13760.6
13613.4
13466.3
13319.2
13172
13024.9
12877.8
12730.6
12583.5
12436.4
12289.3
12142.2
11995.1
11847.9
11700.8
11553.7
11406.6
11259.5
11112.4
10965.3
10818.2
10671.1
10524
10377
10229.9
10082.8
9935.71
9788.63
9641.55
9494.48
9347.41
9200.35
9053.28
8906.22
8759.16
8612.11
8465.06
8318.01
8170.96
8023.92
7876.87
7729.84
7582.8
7435.77
7288.74
7141.71
6994.69
6847.66
6700.64
6553.63
6406.61
6259.6
6112.59
5965.57
5818.56
5671.55
5524.54
5377.53
5230.51
5083.5
4936.48
4789.45
4642.42
4495.39
4348.35
4201.31
4054.25
3907.19
3760.11
3613.02
3465.91
3318.78
3171.63
3024.47
2877.27
2730.05
2582.8
2435.52
2288.21
2140.85
1993.46
1846.03
1698.56
1551.05
1403.5
1255.9
1108.26
960.585
812.873
665.128
517.357
369.547
221.826
73.695
-0.0375842
-0.267123
-0.451772
-0.636692
-0.821656
-1.00665
-1.19167
-1.37672
-1.56178
-1.74683
14643.5
14496.3
14349.2
14202
14054.9
13907.8
13760.6
13613.5
13466.4
13319.2
13172.1
13025
12877.8
12730.7
12583.6
12436.5
12289.4
12142.2
11995.1
11848
11700.9
11553.8
11406.7
11259.6
11112.5
10965.4
10818.3
10671.2
10524.1
10377.1
10230
10082.9
9935.82
9788.74
9641.67
9494.6
9347.54
9200.47
9053.41
8906.36
8759.3
8612.25
8465.2
8318.16
8171.12
8024.08
7877.04
7730.01
7582.98
7435.95
7288.93
7141.91
6994.89
6847.88
6700.86
6553.86
6406.85
6259.85
6112.84
5965.84
5818.84
5671.84
5524.84
5377.84
5230.83
5083.83
4936.82
4789.81
4642.79
4495.77
4348.75
4201.72
4054.68
3907.63
3760.56
3613.48
3466.39
3319.28
3172.15
3024.99
2877.81
2730.6
2583.35
2436.08
2288.76
2141.41
1994.02
1846.58
1699.09
1551.56
1403.98
1256.36
1108.68
960.964
813.205
665.408
517.58
369.707
221.932
73.7058
-0.0328133
-0.266309
-0.451044
-0.63605
-0.821115
-1.00621
-1.19133
-1.37647
-1.56163
-1.74678
14643.6
14496.4
14349.3
14202.1
14055
13907.8
13760.7
13613.6
13466.4
13319.3
13172.2
13025
12877.9
12730.8
12583.7
12436.6
12289.4
12142.3
11995.2
11848.1
11701
11553.9
11406.8
11259.7
11112.6
10965.5
10818.4
10671.3
10524.2
10377.2
10230.1
10083
9935.92
9788.85
9641.78
9494.72
9347.66
9200.6
9053.54
8906.49
8759.44
8612.39
8465.35
8318.31
8171.27
8024.23
7877.2
7730.18
7583.15
7436.13
7289.12
7142.1
6995.09
6848.09
6701.09
6554.09
6407.09
6260.09
6113.1
5966.1
5819.11
5672.12
5525.13
5378.14
5231.15
5084.16
4937.17
4790.16
4643.17
4496.16
4349.15
4202.14
4055.11
3908.08
3761.03
3613.97
3466.89
3319.8
3172.68
3025.54
2878.37
2731.17
2583.94
2436.67
2289.36
2142.01
1994.61
1847.17
1699.67
1552.12
1404.51
1256.86
1109.15
961.384
813.574
665.72
517.829
369.887
222.052
73.7179
-0.0275638
-0.265429
-0.450256
-0.635362
-0.820536
-1.00573
-1.19096
-1.37621
-1.56148
-1.74673
14643.6
14496.5
14349.3
14202.2
14055
13907.9
13760.8
13613.6
13466.5
13319.4
13172.2
13025.1
12878
12730.9
12583.7
12436.6
12289.5
12142.4
11995.3
11848.2
11701.1
11554
11406.9
11259.8
11112.7
10965.6
10818.5
10671.4
10524.3
10377.3
10230.2
10083.1
9936.03
9788.96
9641.89
9494.83
9347.77
9200.72
9053.66
8906.61
8759.57
8612.52
8465.49
8318.45
8171.42
8024.39
7877.36
7730.34
7583.33
7436.31
7289.3
7142.3
6995.3
6848.3
6701.3
6554.31
6407.32
6260.33
6113.35
5966.36
5819.38
5672.4
5525.43
5378.45
5231.47
5084.49
4937.51
4790.53
4643.54
4496.56
4349.57
4202.57
4055.56
3908.54
3761.52
3614.47
3467.41
3320.34
3173.24
3026.11
2878.96
2731.78
2584.56
2437.3
2290
2142.66
1995.26
1847.81
1700.3
1552.73
1405.1
1257.41
1109.66
961.852
813.986
666.069
518.108
370.09
222.186
73.7315
-0.0217413
-0.264481
-0.449408
-0.634625
-0.819918
-1.00523
-1.19057
-1.37593
-1.56131
-1.74668
14643.7
14496.5
14349.4
14202.2
14055.1
13908
13760.8
13613.7
13466.6
13319.4
13172.3
13025.2
12878.1
12730.9
12583.8
12436.7
12289.6
12142.5
11995.4
11848.3
11701.2
11554.1
11407
11259.9
11112.8
10965.7
10818.6
10671.5
10524.4
10377.3
10230.3
10083.2
9936.13
9789.06
9642
9494.94
9347.89
9200.83
9053.78
8906.74
8759.7
8612.66
8465.62
8318.59
8171.56
8024.54
7877.52
7730.51
7583.49
7436.49
7289.49
7142.49
6995.49
6848.5
6701.51
6554.53
6407.55
6260.57
6113.59
5966.62
5819.66
5672.69
5525.72
5378.76
5231.8
5084.83
4937.86
4790.89
4643.93
4496.96
4349.98
4203
4056.02
3909.02
3762.01
3614.99
3467.95
3320.9
3173.82
3026.72
2879.59
2732.42
2585.22
2437.98
2290.69
2143.35
1995.96
1848.5
1700.99
1553.4
1405.75
1258.03
1110.24
962.375
814.448
666.462
518.424
370.318
222.338
73.7467
-0.0151207
-0.263463
-0.448497
-0.633845
-0.819265
-1.0047
-1.19016
-1.37564
-1.56113
-1.74662
14643.7
14496.6
14349.4
14202.3
14055.2
13908
13760.9
13613.8
13466.6
13319.5
13172.4
13025.2
12878.1
12731
12583.9
12436.8
12289.7
12142.5
11995.4
11848.3
11701.2
11554.1
11407
11259.9
11112.8
10965.8
10818.7
10671.6
10524.5
10377.4
10230.4
10083.3
9936.23
9789.16
9642.1
9495.05
9347.99
9200.95
9053.9
8906.86
8759.82
8612.79
8465.76
8318.73
8171.71
8024.69
7877.67
7730.66
7583.66
7436.66
7289.67
7142.68
6995.69
6848.7
6701.72
6554.74
6407.77
6260.81
6113.84
5966.88
5819.93
5672.97
5526.02
5379.07
5232.12
5085.17
4938.22
4791.26
4644.31
4497.36
4350.41
4203.45
4056.48
3909.51
3762.52
3615.53
3468.51
3321.48
3174.43
3027.35
2880.24
2733.1
2585.92
2438.7
2291.43
2144.1
1996.71
1849.26
1701.74
1554.14
1406.47
1258.71
1110.88
962.963
814.97
666.907
518.783
370.578
222.511
73.7638
-0.0077493
-0.262371
-0.447542
-0.633018
-0.818579
-1.00414
-1.18974
-1.37534
-1.56095
-1.74656
14643.8
14496.6
14349.5
14202.4
14055.2
13908.1
13760.9
13613.8
13466.7
13319.6
13172.4
13025.3
12878.2
12731.1
12583.9
12436.8
12289.7
12142.6
11995.5
11848.4
11701.3
11554.2
11407.1
11260
11112.9
10965.8
10818.8
10671.7
10524.6
10377.5
10230.5
10083.4
9936.32
9789.26
9642.2
9495.15
9348.1
9201.06
9054.01
8906.98
8759.94
8612.91
8465.88
8318.86
8171.84
8024.83
7877.82
7730.82
7583.83
7436.83
7289.84
7142.85
6995.87
6848.9
6701.93
6554.96
6408
6261.04
6114.09
5967.14
5820.19
5673.25
5526.31
5379.38
5232.44
5085.51
4938.57
4791.63
4644.7
4497.77
4350.83
4203.9
4056.96
3910.01
3763.05
3616.08
3469.09
3322.09
3175.06
3028.01
2880.93
2733.82
2586.67
2439.47
2292.22
2144.91
1997.54
1850.09
1702.57
1554.96
1407.27
1259.48
1111.6
963.626
815.562
667.414
519.19
370.877
222.71
73.7848
0.000721693
-0.261211
-0.446512
-0.632148
-0.817864
-1.00357
-1.1893
-1.37504
-1.56077
-1.7465
14643.9
14496.7
14349.6
14202.4
14055.3
13908.1
13761
13613.9
13466.7
13319.6
13172.5
13025.4
12878.2
12731.1
12584
12436.9
12289.8
12142.7
11995.6
11848.5
11701.4
11554.3
11407.2
11260.1
11113
10965.9
10818.8
10671.8
10524.7
10377.6
10230.5
10083.5
9936.41
9789.36
9642.3
9495.25
9348.2
9201.16
9054.12
8907.09
8760.06
8613.03
8466.01
8318.99
8171.98
8024.97
7877.97
7730.98
7583.98
7436.99
7290.01
7143.03
6996.06
6849.09
6702.13
6555.17
6408.22
6261.27
6114.33
5967.39
5820.46
5673.53
5526.6
5379.68
5232.76
5085.85
4938.92
4792
4645.09
4498.18
4351.27
4204.35
4057.44
3910.51
3763.58
3616.64
3469.69
3322.71
3175.72
3028.71
2881.66
2734.58
2587.46
2440.29
2293.07
2145.78
1998.43
1851
1703.48
1555.87
1408.16
1260.34
1112.41
964.379
816.237
667.994
519.662
371.221
222.941
73.808
0.0109876
-0.259986
-0.445434
-0.631245
-0.817127
-1.00299
-1.18886
-1.37473
-1.56059
-1.74644
14643.9
14496.8
14349.6
14202.5
14055.3
13908.2
13761.1
13613.9
13466.8
13319.7
13172.5
13025.4
12878.3
12731.2
12584.1
12437
12289.8
12142.7
11995.6
11848.5
11701.4
11554.3
11407.2
11260.2
11113.1
10966
10818.9
10671.8
10524.8
10377.7
10230.6
10083.6
9936.5
9789.45
9642.39
9495.35
9348.3
9201.26
9054.23
8907.2
8760.17
8613.15
8466.13
8319.12
8172.11
8025.11
7878.11
7731.12
7584.13
7437.15
7290.17
7143.2
6996.24
6849.28
6702.32
6555.38
6408.43
6261.5
6114.57
5967.64
5820.72
5673.8
5526.89
5379.98
5233.08
5086.18
4939.27
4792.36
4645.48
4498.59
4351.7
4204.81
4057.92
3911.03
3764.13
3617.22
3470.3
3323.36
3176.41
3029.43
2882.42
2735.38
2588.3
2441.17
2293.98
2146.73
1999.4
1851.99
1704.48
1556.87
1409.15
1261.31
1113.34
965.237
817.011
668.664
520.208
371.621
223.209
73.837
0.0223732
-0.258702
-0.444315
-0.63032
-0.816384
-1.00241
-1.18843
-1.37443
-1.56042
-1.74639
14644
14496.8
14349.7
14202.5
14055.4
13908.2
13761.1
13614
13466.8
13319.7
13172.6
13025.5
12878.4
12731.2
12584.1
12437
12289.9
12142.8
11995.7
11848.6
11701.5
11554.4
11407.3
11260.2
11113.1
10966.1
10819
10671.9
10524.8
10377.8
10230.7
10083.6
9936.58
9789.53
9642.48
9495.44
9348.4
9201.36
9054.33
8907.3
8760.28
8613.26
8466.25
8319.24
8172.23
8025.24
7878.25
7731.26
7584.28
7437.3
7290.33
7143.37
6996.41
6849.46
6702.52
6555.58
6408.65
6261.72
6114.8
5967.88
5820.98
5674.08
5527.18
5380.29
5233.4
5086.52
4939.62
4792.73
4645.86
4499
4352.14
4205.28
4058.41
3911.55
3764.68
3617.81
3470.93
3324.03
3177.11
3030.18
2883.22
2736.22
2589.18
2442.1
2294.96
2147.75
2000.46
1853.08
1705.59
1557.99
1410.26
1262.4
1114.39
966.22
817.904
669.442
520.846
372.091
223.524
73.8699
0.0364578
-0.25737
-0.443157
-0.629391
-0.815655
-1.00185
-1.18801
-1.37414
-1.56025
-1.74633
14644
14496.9
14349.7
14202.6
14055.4
13908.3
13761.2