/*--------------------------------*- C++ -*----------------------------------*\
| =========                 |                                                 |
| \\      /  F ield         | OpenFOAM: The Open Source CFD Toolbox           |
|  \\    /   O peration     | Version:  v2106                                 |
|   \\  /    A nd           | Website:  www.openfoam.com                      |
|    \\/     M anipulation  |                                                 |
\*---------------------------------------------------------------------------*/
FoamFile
{
    version     2.0;
    format      ascii;
    arch        "LSB;label=32;scalar=64";
    class       volScalarField;
    location    "0.2";
    object      p_rgh;
}
// * * * * * * * * * * * * * * * * * * * * * * * * * * * * * * * * * * * * * //

dimensions      [1 -1 -2 0 0 0 0];

internalField   nonuniform List<scalar> 
29678
(
0.0464016
0.0464462
0.0465329
0.046661
0.0468329
0.0470501
0.0473122
0.047619
0.0479704
0.0483664
0.0488071
0.0492929
0.0498238
0.0504002
0.0510225
0.0516908
0.0524053
0.0531664
0.0539744
0.0548297
0.0557326
0.0566833
0.0576821
0.0587292
0.0598251
0.0609698
0.0621634
0.0634061
0.0646981
0.0660393
0.0674299
0.0688697
0.0703583
0.0718956
0.0734811
0.0751145
0.0767949
0.0785216
0.0802935
0.0821095
0.0839683
0.0858681
0.0878071
0.0897832
0.0917939
0.0938365
0.0959078
0.0980043
0.100122
0.102257
0.104403
0.106557
0.108711
0.11086
0.112996
0.115111
0.117198
0.119247
0.121249
0.123192
0.125067
0.12686
0.128559
0.130151
0.131622
0.132956
0.134139
0.135154
0.135983
0.136611
0.13702
0.137192
0.137109
0.136752
0.136104
0.135148
0.133867
0.132246
0.130268
0.127922
0.125195
0.122077
0.11856
0.114639
0.110311
0.105576
0.100437
0.0949008
0.0889775
0.0826805
0.0760267
0.0690368
0.0617348
0.0541483
0.046308
0.0382484
0.0300091
0.0214142
0.0141368
0.00160792
0.00138261
0.00010621
8.34199e-05
8.32005e-05
7.26736e-05
6.08579e-05
4.80137e-05
3.46266e-05
2.09132e-05
7.05854e-06
0.13911
0.139236
0.139487
0.13987
0.140389
0.141044
0.141831
0.142752
0.143806
0.144993
0.146315
0.147772
0.149364
0.151093
0.152959
0.154963
0.157106
0.159388
0.161812
0.164377
0.167085
0.169936
0.172932
0.176073
0.17936
0.182794
0.186374
0.190102
0.193978
0.198002
0.202174
0.206493
0.21096
0.215573
0.220331
0.225232
0.230275
0.235458
0.240776
0.246228
0.251808
0.257512
0.263334
0.269268
0.275307
0.281442
0.287665
0.293963
0.300327
0.306743
0.313196
0.319671
0.326149
0.332612
0.339038
0.345405
0.351687
0.357857
0.363887
0.369745
0.375397
0.380806
0.385937
0.390747
0.395195
0.399235
0.402821
0.405905
0.408435
0.410361
0.41163
0.412187
0.411982
0.410953
0.409051
0.406223
0.402418
0.397588
0.391688
0.384678
0.37652
0.367184
0.356646
0.344888
0.331903
0.317689
0.302257
0.285625
0.267822
0.24889
0.22888
0.207854
0.185884
0.163054
0.139457
0.115195
0.09038
0.064554
0.0424308
0.00486553
0.004134
0.000323145
0.000298025
0.000261157
0.000224327
0.000185891
0.000146026
0.000105102
6.34276e-05
2.13862e-05
0.231686
0.231895
0.232313
0.232953
0.23382
0.234911
0.236224
0.237758
0.239514
0.241493
0.243695
0.246122
0.248775
0.251655
0.254764
0.258103
0.261673
0.265476
0.269515
0.273789
0.278301
0.283052
0.288044
0.293278
0.298756
0.304477
0.310444
0.316656
0.323116
0.329823
0.336776
0.343976
0.351421
0.359111
0.367043
0.375214
0.383622
0.392263
0.401132
0.410223
0.419529
0.429042
0.438754
0.448653
0.458728
0.468965
0.479348
0.489861
0.500483
0.511194
0.521969
0.532782
0.543603
0.5544
0.565139
0.575781
0.586284
0.596604
0.606692
0.616496
0.625959
0.635023
0.643623
0.651692
0.659159
0.66595
0.671987
0.677188
0.681469
0.684743
0.686923
0.687917
0.687643
0.685992
0.682886
0.678234
0.67195
0.663955
0.654171
0.64253
0.62897
0.613439
0.595895
0.576309
0.554666
0.530964
0.505218
0.477461
0.44774
0.416124
0.382698
0.347565
0.310848
0.272685
0.233234
0.192665
0.151168
0.107989
0.0709756
0.0081096
0.00684663
0.000541814
0.000503845
0.000439431
0.000376902
0.000311914
0.000244836
0.000176139
0.000106268
3.58125e-05
0.324045
0.324336
0.324922
0.325817
0.327031
0.328559
0.330397
0.332544
0.335001
0.337769
0.340851
0.344246
0.347959
0.351989
0.35634
0.361012
0.366007
0.37133
0.376981
0.382963
0.389277
0.395927
0.402914
0.41024
0.417906
0.425914
0.434266
0.442963
0.452006
0.461395
0.471131
0.481212
0.491637
0.502405
0.513513
0.524958
0.536735
0.548839
0.561263
0.574
0.58704
0.600372
0.613983
0.62786
0.641985
0.65634
0.670902
0.685648
0.700551
0.715581
0.730705
0.745885
0.761081
0.776249
0.791339
0.806298
0.821068
0.835586
0.849785
0.863591
0.876926
0.889707
0.901845
0.913245
0.923807
0.933428
0.941996
0.949399
0.955517
0.96023
0.963411
0.964932
0.964681
0.962499
0.958277
0.951886
0.943205
0.93212
0.918521
0.90231
0.883399
0.861712
0.83719
0.809791
0.779489
0.746283
0.710192
0.671259
0.629552
0.585165
0.538217
0.488856
0.437251
0.383601
0.328125
0.271067
0.212694
0.151947
0.099869
0.0114085
0.00962072
0.000764089
0.000711333
0.000620212
0.000531745
0.000439884
0.000345187
0.000248282
0.000149775
5.0469e-05
0.416098
0.416471
0.417225
0.418375
0.419935
0.421899
0.42426
0.427018
0.430175
0.433732
0.437691
0.442054
0.446824
0.452002
0.457592
0.463595
0.470015
0.476854
0.484116
0.491803
0.499918
0.508463
0.517443
0.526858
0.536711
0.547005
0.557741
0.568922
0.580548
0.592619
0.605137
0.6181
0.631506
0.645355
0.659643
0.674365
0.689516
0.70509
0.721078
0.73747
0.754255
0.771419
0.788946
0.806816
0.825011
0.843504
0.86227
0.881277
0.900492
0.919875
0.939385
0.958974
0.978591
0.998178
1.01767
1.03701
1.05611
1.07489
1.09328
1.11116
1.12846
1.14505
1.16082
1.17565
1.18941
1.20197
1.21319
1.22291
1.23099
1.23727
1.24158
1.24375
1.24366
1.24107
1.23586
1.22785
1.21688
1.20282
1.1855
1.16481
1.14062
1.11284
1.08138
1.04619
1.00723
0.964496
0.918014
0.867835
0.814046
0.756766
0.69615
0.632387
0.565698
0.49634
0.424598
0.350791
0.275266
0.196655
0.129253
0.0147638
0.0124451
0.000990964
0.000922598
0.000804545
0.000689714
0.000570494
0.000447636
0.000321946
0.000194204
6.5445e-05
0.507758
0.508215
0.509135
0.51054
0.512445
0.514842
0.517726
0.521094
0.524949
0.529292
0.534127
0.539455
0.545279
0.551603
0.558429
0.565761
0.573601
0.581955
0.590824
0.600213
0.610125
0.620564
0.631533
0.643035
0.655074
0.667651
0.68077
0.694433
0.70864
0.723394
0.738694
0.75454
0.77093
0.787863
0.805334
0.823339
0.841871
0.860923
0.880484
0.900544
0.921088
0.9421
0.96356
0.985447
1.00773
1.0304
1.0534
1.0767
1.10026
1.12404
1.14799
1.17204
1.19613
1.2202
1.24417
1.26796
1.29147
1.31461
1.33727
1.35934
1.3807
1.40121
1.42074
1.43913
1.45623
1.47187
1.48589
1.49809
1.50829
1.51629
1.52189
1.52489
1.52512
1.5223
1.51625
1.50679
1.49369
1.47678
1.45588
1.43082
1.40145
1.36765
1.32931
1.28636
1.23875
1.18647
1.12954
1.06802
1.00203
0.931702
0.857227
0.778838
0.696809
0.611456
0.523135
0.432241
0.339205
0.242345
0.159284
0.0181905
0.0153261
0.00122368
0.00113908
0.000993565
0.000851755
0.000704522
0.000552794
0.000397572
0.000239823
8.08319e-05
0.598939
0.599479
0.600565
0.602224
0.604472
0.607303
0.610706
0.614683
0.619233
0.624361
0.630068
0.636358
0.643235
0.6507
0.65876
0.667416
0.676675
0.686538
0.697011
0.708099
0.719805
0.732133
0.745088
0.758674
0.772895
0.787753
0.803252
0.819394
0.836183
0.853618
0.871701
0.890431
0.909807
0.929826
0.950486
0.97178
0.993701
1.01624
1.03939
1.06313
1.08745
1.11233
1.13774
1.16367
1.19008
1.21695
1.24422
1.27186
1.29982
1.32805
1.35649
1.38506
1.41371
1.44234
1.47086
1.49919
1.52721
1.55481
1.58187
1.60825
1.6338
1.65838
1.68181
1.70392
1.72453
1.74343
1.76042
1.77529
1.7878
1.79773
1.80484
1.80887
1.80962
1.80677
1.8001
1.78937
1.77434
1.75477
1.73044
1.70116
1.66674
1.62702
1.58187
1.5312
1.47495
1.41309
1.34565
1.27269
1.19435
1.11078
1.02221
0.928919
0.831234
0.729532
0.624242
0.51584
0.404847
0.289258
0.190122
0.0217035
0.018275
0.00146363
0.00136214
0.00118846
0.00101888
0.000842797
0.00066131
0.000475627
0.000286911
9.67245e-05
0.689555
0.690177
0.691428
0.69334
0.695931
0.699192
0.703114
0.707696
0.71294
0.718849
0.725426
0.732675
0.740599
0.749204
0.758492
0.768469
0.77914
0.79051
0.802583
0.815364
0.828859
0.843073
0.85801
0.873676
0.890074
0.90721
0.925086
0.943706
0.963073
0.983189
1.00405
1.02567
1.04803
1.07114
1.095
1.11959
1.14491
1.17094
1.19769
1.22513
1.25324
1.28201
1.31141
1.34141
1.37198
1.40308
1.43467
1.4667
1.49911
1.53185
1.56485
1.59802
1.6313
1.66458
1.69776
1.73074
1.76339
1.79557
1.82716
1.85799
1.8879
1.91671
1.94422
1.97024
1.99455
2.01692
2.03711
2.05486
2.06993
2.08203
2.09088
2.0962
2.09771
2.09509
2.08804
2.07629
2.05955
2.03753
2.00998
1.97666
1.93734
1.89183
1.83997
1.78164
1.71676
1.64529
1.56727
1.48275
1.39187
1.29484
1.1919
1.08338
0.96966
0.851184
0.728457
0.602039
0.472548
0.33765
0.221935
0.0253187
0.0213046
0.00171231
0.00159319
0.00139049
0.00119216
0.000986202
0.000773874
0.000556605
0.000335768
0.000113224
0.77952
0.780223
0.781639
0.783802
0.786734
0.790425
0.794863
0.800047
0.805982
0.812668
0.820111
0.828314
0.837283
0.847021
0.857534
0.868827
0.880906
0.893776
0.907442
0.921913
0.937192
0.953285
0.9702
0.98794
1.00651
1.02592
1.04617
1.06727
1.08921
1.11201
1.13565
1.16016
1.18551
1.21171
1.23877
1.26666
1.29539
1.32494
1.3553
1.38645
1.41838
1.45107
1.48448
1.51858
1.55335
1.58873
1.62468
1.66116
1.69808
1.7354
1.77303
1.81089
1.84889
1.88692
1.92487
1.96262
2.00003
2.03695
2.07322
2.10867
2.14311
2.17634
2.20815
2.23829
2.26653
2.29261
2.31625
2.33716
2.35504
2.36959
2.38048
2.38737
2.38995
2.38785
2.38072
2.36823
2.35005
2.32585
2.29532
2.25817
2.21414
2.16299
2.10454
2.03863
1.96515
1.88406
1.79536
1.69915
1.59555
1.48479
1.36716
1.24302
1.11282
0.977071
0.836353
0.69132
0.542693
0.387798
0.254905
0.0290539
0.0244292
0.00197132
0.00183372
0.00160098
0.00137273
0.00113568
0.000891227
0.00064104
0.000386716
0.000130441
0.868747
0.869532
0.871111
0.873524
0.876795
0.880913
0.885864
0.891649
0.898269
0.90573
0.914034
0.923188
0.933195
0.944062
0.955794
0.968397
0.981878
0.996242
1.0115
1.02765
1.04471
1.06267
1.08156
1.10137
1.12211
1.14379
1.16641
1.18997
1.21449
1.23996
1.26639
1.29378
1.32213
1.35143
1.38169
1.41289
1.44504
1.47811
1.5121
1.54699
1.58276
1.61939
1.65684
1.69509
1.7341
1.77381
1.81418
1.85516
1.89667
1.93864
1.98099
2.02363
2.06646
2.10935
2.1522
2.19485
2.23717
2.27898
2.32012
2.36038
2.39956
2.43743
2.47375
2.50827
2.5407
2.57076
2.59814
2.62251
2.64353
2.66085
2.6741
2.68291
2.68688
2.68566
2.67878
2.66589
2.64659
2.62051
2.58728
2.54657
2.49806
2.44147
2.37657
2.30317
2.22114
2.13041
2.03097
1.9229
1.80636
1.68158
1.54889
1.4087
1.26151
1.1079
0.948552
0.784206
0.615697
0.440001
0.289229
0.0329284
0.027664
0.00224242
0.00208531
0.00182135
0.00156182
0.00129224
0.00101416
0.000729506
0.000440104
0.000148498
0.957151
0.958017
0.959759
0.962421
0.966029
0.97057
0.976032
0.982413
0.989716
0.997946
1.00711
1.01721
1.02825
1.04024
1.05318
1.06709
1.08196
1.09781
1.11465
1.13248
1.15131
1.17114
1.19199
1.21386
1.23676
1.2607
1.28569
1.31172
1.33881
1.36696
1.39617
1.42644
1.45778
1.49019
1.52365
1.55818
1.59375
1.63036
1.668
1.70665
1.74629
1.78688
1.82842
1.87085
1.91413
1.95823
2.00308
2.04863
2.09479
2.1415
2.18867
2.23619
2.28396
2.33185
2.37972
2.42744
2.47483
2.52172
2.56791
2.61318
2.65733
2.70008
2.74118
2.78035
2.81727
2.85162
2.88306
2.91123
2.93574
2.9562
2.9722
2.9833
2.98906
2.98912
2.98287
2.96996
2.94993
2.92232
2.88674
2.84277
2.79005
2.72826
2.6571
2.57634
2.48582
2.38544
2.27518
2.15511
2.02538
1.88626
1.7381
1.58135
1.41658
1.24446
1.06573
0.881268
0.692014
0.494585
0.325122
0.0369636
0.0310261
0.00252747
0.00234969
0.00205313
0.00176074
0.00145698
0.00114354
0.000822625
0.00049631
0.00016753
1.04465
1.04559
1.0475
1.05041
1.05435
1.05931
1.06528
1.07225
1.08023
1.08923
1.09924
1.11028
1.12235
1.13545
1.1496
1.16481
1.18107
1.1984
1.21681
1.2363
1.25689
1.27859
1.30139
1.32532
1.35038
1.37657
1.40391
1.43241
1.46206
1.49288
1.52487
1.55803
1.59237
1.62788
1.66456
1.70241
1.74142
1.78159
1.82289
1.86532
1.90884
1.95345
1.99909
2.04575
2.09336
2.1419
2.19129
2.24148
2.29238
2.34392
2.396
2.44851
2.50135
2.55436
2.60742
2.66036
2.713
2.76516
2.81662
2.86715
2.9165
2.96441
3.01057
3.05469
3.09642
3.13541
3.17128
3.20363
3.23203
3.25604
3.27521
3.28905
3.29706
3.2988
3.29366
3.28118
3.26084
3.23213
3.19458
3.14773
3.09113
3.0244
2.9472
2.85925
2.76034
2.65032
2.52917
2.39693
2.25377
2.09994
1.93584
1.76198
1.57898
1.38758
1.18864
0.983133
0.772145
0.551912
0.362824
0.041183
0.0345341
0.00282849
0.0026287
0.00229797
0.0019709
0.00163107
0.00128029
0.000921063
0.000555738
0.000187682
1.13115
1.13218
1.13424
1.1374
1.14167
1.14705
1.15352
1.16108
1.16974
1.17949
1.19035
1.20232
1.21541
1.22962
1.24497
1.26146
1.2791
1.2979
1.31788
1.33903
1.36137
1.38492
1.40967
1.43564
1.46285
1.49129
1.52098
1.55193
1.58414
1.61763
1.65239
1.68844
1.72577
1.76438
1.80429
1.84547
1.88794
1.93167
1.97666
2.02288
2.07032
2.11896
2.16876
2.21968
2.27168
2.32471
2.37871
2.43362
2.48934
2.5458
2.6029
2.66053
2.71856
2.77685
2.83525
2.89359
2.95168
3.00932
3.06627
3.1223
3.17714
3.23049
3.28204
3.33144
3.37835
3.42235
3.46305
3.5
3.53273
3.56076
3.58357
3.60064
3.6114
3.61533
3.61182
3.60027
3.58012
3.55079
3.51174
3.46241
3.40232
3.331
3.24804
3.1531
3.04592
2.92632
2.79421
2.64964
2.49276
2.32385
2.14331
1.95171
1.74973
1.5382
1.31809
1.0905
0.856645
0.612382
0.402598
0.0456127
0.0382083
0.00314769
0.00292434
0.00255765
0.00219384
0.00181577
0.0014254
0.00102553
0.000618818
0.00020911
1.21658
1.21769
1.21991
1.22331
1.22791
1.23371
1.24068
1.24882
1.25814
1.26865
1.28035
1.29324
1.30734
1.32266
1.33919
1.35696
1.37597
1.39624
1.41776
1.44056
1.46465
1.49003
1.51672
1.54473
1.57407
1.60475
1.63678
1.67018
1.70494
1.74109
1.77862
1.81755
1.85788
1.8996
1.94273
1.98726
2.03318
2.08049
2.12918
2.17923
2.23061
2.28332
2.3373
2.39254
2.44898
2.50656
2.56524
2.62494
2.68557
2.74706
2.80929
2.87215
2.93552
2.99924
3.06315
3.12708
3.19083
3.25417
3.31688
3.37868
3.43929
3.49839
3.55566
3.61072
3.66319
3.71263
3.7586
3.80061
3.83816
3.87072
3.89771
3.91854
3.93262
3.93931
3.938
3.92796
3.90857
3.87918
3.83915
3.78786
3.72473
3.64921
3.56083
3.45916
3.34388
3.21476
3.07167
2.91462
2.74374
2.55932
2.36179
2.15176
1.92998
1.69737
1.45501
1.20413
0.946134
0.676443
0.444742
0.0502816
0.0420713
0.00348751
0.00323881
0.00283412
0.00243122
0.00201247
0.00157994
0.0011368
0.000686011
0.00023198
1.30085
1.30204
1.30442
1.30805
1.31299
1.31919
1.32666
1.33538
1.34536
1.35661
1.36914
1.38295
1.39806
1.41446
1.43218
1.45122
1.47158
1.4933
1.51637
1.5408
1.56662
1.59383
1.62244
1.65248
1.68394
1.71685
1.75121
1.78704
1.82436
1.86316
1.90345
1.94526
1.98858
2.03341
2.07977
2.12764
2.17703
2.22794
2.28034
2.33423
2.38959
2.44639
2.50461
2.5642
2.62512
2.68733
2.75075
2.81532
2.88096
2.94757
3.01505
3.08328
3.15213
3.22144
3.29105
3.36077
3.43039
3.49968
3.5684
3.63626
3.70295
3.76816
3.83151
3.89263
3.95107
4.0064
4.05811
4.10571
4.14861
4.18625
4.21801
4.24323
4.26125
4.27135
4.27288
4.265
4.24702
4.2182
4.17781
4.12513
4.05949
3.98026
3.88686
3.77879
3.65565
3.51713
3.36305
3.19337
3.0082
2.80784
2.59272
2.3635
2.121
1.86624
1.60041
1.32491
1.04131
0.744599
0.489589
0.0552222
0.0461483
0.00385061
0.00357449
0.0031295
0.00268483
0.00222261
0.00174504
0.00125567
0.000757808
0.000256464
1.38389
1.38515
1.38768
1.39156
1.39681
1.40342
1.41138
1.42067
1.43131
1.4433
1.45665
1.47137
1.48747
1.50495
1.52384
1.54413
1.56585
1.589
1.6136
1.63966
1.66719
1.69622
1.72674
1.75879
1.79236
1.82749
1.86417
1.90243
1.94227
1.98372
2.02677
2.07145
2.11775
2.1657
2.21528
2.26651
2.31937
2.37388
2.43002
2.48777
2.54713
2.60806
2.67054
2.73453
2.8
2.86688
2.93512
3.00465
3.07538
3.14723
3.22008
3.29381
3.36829
3.44336
3.51885
3.59457
3.67029
3.74579
3.82079
3.89501
3.96813
4.0398
4.10963
4.17721
4.2421
4.30379
4.36178
4.4155
4.46435
4.5077
4.54487
4.57514
4.59779
4.61203
4.6171
4.61215
4.59631
4.56879
4.52873
4.47534
4.40783
4.32545
4.22752
4.11346
3.98274
3.83499
3.66995
3.48753
3.28781
3.07104
2.83769
2.58846
2.32422
2.04611
1.75546
1.45382
1.14296
0.817421
0.537517
0.060471
0.0504673
0.00423989
0.00393397
0.00344607
0.00295661
0.00244779
0.00192192
0.00138301
0.000834723
0.000282744
1.46559
1.46693
1.46962
1.47373
1.47931
1.48632
1.49476
1.50462
1.5159
1.52863
1.54279
1.55841
1.57549
1.59404
1.61409
1.63562
1.65867
1.68325
1.70936
1.73703
1.76627
1.79709
1.82951
1.86356
1.89923
1.93655
1.97554
2.01621
2.05858
2.10266
2.14846
2.196
2.24529
2.29634
2.34915
2.40373
2.46008
2.5182
2.57808
2.63972
2.70309
2.76818
2.83496
2.9034
2.97346
3.04508
3.11821
3.19278
3.2687
3.34588
3.42422
3.5036
3.58387
3.66487
3.74644
3.82837
3.91044
3.9924
4.07399
4.15489
4.23478
4.31329
4.39002
4.46452
4.53633
4.60492
4.66974
4.73019
4.78562
4.83534
4.87863
4.9147
4.94275
4.96193
4.97135
4.97016
4.95729
4.93188
4.89298
4.83965
4.77099
4.68614
4.58429
4.46472
4.32681
4.17008
3.99418
3.79893
3.58437
3.35072
3.09847
2.82832
2.54124
2.23846
1.92145
1.59196
1.25197
0.895554
0.588954
0.0660692
0.05506
0.00465806
0.00432011
0.00378633
0.00324866
0.00268969
0.00211189
0.00151974
0.000917301
0.000311008
1.5459
1.54732
1.55016
1.5545
1.56039
1.5678
1.57672
1.58713
1.59906
1.6125
1.62747
1.64398
1.66203
1.68165
1.70283
1.7256
1.74997
1.77595
1.80357
1.83283
1.86375
1.89636
1.93066
1.96668
2.00444
2.04395
2.08523
2.1283
2.17317
2.21987
2.26841
2.3188
2.37107
2.42521
2.48125
2.53918
2.59901
2.66075
2.72439
2.78993
2.85734
2.92662
2.99774
3.07066
3.14536
3.22178
3.29987
3.37955
3.46076
3.54339
3.62735
3.7125
3.79872
3.88584
3.97368
4.06205
4.15071
4.23942
4.32789
4.41581
4.50283
4.58859
4.67264
4.75455
4.8338
4.90984
4.9821
5.04992
5.11261
5.16944
5.21962
5.2623
5.2966
5.32159
5.33629
5.33974
5.3308
5.30845
5.27162
5.21925
5.15031
5.06377
4.9587
4.83424
4.68963
4.52425
4.33765
4.12956
3.89992
3.64893
3.37706
3.08503
2.77388
2.44495
2.09988
1.74061
1.36938
0.979745
0.644397
0.0720641
0.0599623
0.00510971
0.00473615
0.00415311
0.00356327
0.00295013
0.00231631
0.00166681
0.0010061
0.00034145
1.62473
1.62622
1.62921
1.63378
1.63998
1.64778
1.65717
1.66814
1.6807
1.69485
1.71062
1.728
1.74701
1.76767
1.78998
1.81397
1.83964
1.86702
1.89612
1.92696
1.95955
1.99392
2.03009
2.06807
2.10789
2.14956
2.19311
2.23856
2.28593
2.33524
2.3865
2.43973
2.49496
2.55219
2.61145
2.67273
2.73605
2.80141
2.86882
2.93826
3.00973
3.08322
3.15871
3.23616
3.31555
3.39682
3.47994
3.56482
3.6514
3.73959
3.82928
3.92036
4.01268
4.10609
4.20041
4.29544
4.39095
4.48668
4.58235
4.67763
4.77218
4.8656
4.95744
5.04725
5.13449
5.21858
5.29891
5.37478
5.44548
5.51021
5.56811
5.61829
5.65977
5.69154
5.71253
5.72163
5.7177
5.69946
5.66577
5.61541
5.54716
5.45988
5.35245
5.22384
5.07314
4.89957
4.70253
4.48163
4.23673
3.96794
3.6757
3.36075
3.0242
2.6675
2.29245
1.90123
1.49636
1.07086
0.704418
0.0785097
0.0652154
0.00559836
0.00518552
0.00454934
0.00390281
0.00323099
0.00253657
0.00182515
0.00110165
0.000374253
1.702
1.70356
1.7067
1.71149
1.718
1.72619
1.73604
1.74755
1.76073
1.77559
1.79214
1.81038
1.83034
1.85203
1.87546
1.90065
1.92761
1.95636
1.98692
2.01932
2.05356
2.08968
2.12768
2.16761
2.20947
2.25329
2.29909
2.34691
2.39675
2.44864
2.50261
2.55867
2.61685
2.67716
2.73962
2.80425
2.87105
2.94003
3.01121
3.08457
3.16012
3.23784
3.31772
3.39973
3.48385
3.57003
3.65824
3.7484
3.84044
3.93429
4.02984
4.12697
4.22556
4.32545
4.42645
4.52837
4.63098
4.73403
4.83721
4.94022
5.04268
5.14419
5.24431
5.34254
5.43833
5.5311
5.62017
5.70485
5.78434
5.85781
5.92435
5.98299
6.03267
6.07229
6.10068
6.11659
6.11885
6.10594
6.07658
6.02941
5.96303
5.8761
5.76733
5.63548
5.47945
5.29828
5.09118
4.85762
4.59731
4.31029
3.99692
3.65796
3.29456
2.90828
2.50113
2.07551
1.63428
1.16988
0.769678
0.0854669
0.0708655
0.00612851
0.005672
0.00497819
0.0042698
0.00353416
0.00277403
0.00199567
0.00120446
0.000409573
1.77762
1.77926
1.78254
1.78756
1.79437
1.80294
1.81325
1.82529
1.83909
1.85464
1.87195
1.89105
1.91195
1.93465
1.95917
1.98554
2.01377
2.04388
2.07589
2.10982
2.14569
2.18353
2.22336
2.2652
2.30908
2.35503
2.40306
2.45321
2.5055
2.55996
2.61662
2.67549
2.7366
2.79997
2.86563
2.93359
3.00387
3.07647
3.15141
3.2287
3.30833
3.3903
3.4746
3.5612
3.65009
3.74123
3.83459
3.93009
4.02769
4.1273
4.22882
4.33215
4.43716
4.54369
4.65158
4.76062
4.8706
4.98124
5.09227
5.20336
5.31414
5.42419
5.53308
5.64027
5.74523
5.84732
5.94587
6.04012
6.12925
6.21238
6.28853
6.35667
6.41565
6.4643
6.50131
6.52535
6.53503
6.52885
6.50519
6.46257
6.3994
6.31412
6.20522
6.07123
5.91083
5.72281
5.5062
5.26024
4.98449
4.67885
4.3436
3.97947
3.58764
3.16981
2.72817
2.2654
1.78473
1.27797
0.840949
0.0930047
0.0769641
0.00670536
0.00619973
0.00544305
0.00466675
0.0038615
0.00302998
0.00217915
0.00131492
0.000447502
1.85154
1.85325
1.85667
1.86191
1.86902
1.87796
1.88871
1.90129
1.91568
1.93191
1.94999
1.96992
1.99173
2.01543
2.04104
2.06857
2.09805
2.1295
2.16293
2.19837
2.23585
2.27539
2.31701
2.36075
2.40662
2.45467
2.50491
2.55737
2.61209
2.66909
2.72841
2.79007
2.85409
2.92051
2.98935
3.06062
3.13436
3.21058
3.28929
3.3705
3.45421
3.54044
3.62917
3.72039
3.81409
3.91023
4.00879
4.10971
4.21293
4.3184
4.42601
4.53566
4.64724
4.7606
4.87557
4.99196
5.10956
5.2281
5.34729
5.46683
5.58633
5.70539
5.82354
5.94028
6.05502
6.16712
6.27589
6.38053
6.4802
6.57394
6.66075
6.73951
6.809
6.86794
6.91494
6.94851
6.96707
6.96915
6.95274
6.91623
6.85781
6.7757
6.6681
6.53331
6.3697
6.17583
5.95043
5.69251
5.40141
5.07684
4.71898
4.32848
3.90655
3.455
2.97621
2.47319
1.94957
1.3965
0.919148
0.101198
0.083566
0.0073367
0.00677353
0.00594751
0.00509614
0.00421475
0.00330553
0.00237619
0.0014332
0.000488018
1.92367
1.92544
1.92901
1.93447
1.94186
1.95117
1.96237
1.97545
1.99044
2.00734
2.02615
2.04691
2.06962
2.0943
2.12097
2.14965
2.18035
2.21311
2.24795
2.28488
2.32394
2.36515
2.40854
2.45414
2.50199
2.5521
2.60452
2.65927
2.71639
2.77591
2.83786
2.90228
2.96919
3.03863
3.11062
3.1852
3.26238
3.3422
3.42466
3.50979
3.59759
3.68808
3.78126
3.87711
3.97564
4.07682
4.18063
4.28702
4.39595
4.50736
4.62116
4.73726
4.85556
4.97591
5.09816
5.22212
5.34758
5.4743
5.60199
5.73034
5.85898
5.98751
6.11546
6.24231
6.36747
6.49029
6.61005
6.72595
6.83708
6.94247
7.04104
7.13162
7.21291
7.28353
7.34198
7.38664
7.4158
7.42768
7.42037
7.39175
7.33988
7.2627
7.15811
7.02411
6.85875
6.66026
6.42705
6.15782
5.85163
5.50796
5.1268
4.70871
4.25489
3.76724
3.24835
2.70157
2.13101
1.52708
1.00536
0.110142
0.0907456
0.00802965
0.00739646
0.00649498
0.0055602
0.00459543
0.00360156
0.00258695
0.00155909
0.000530837
1.99394
1.99578
1.99949
2.00515
2.01283
2.0225
2.03412
2.04772
2.06328
2.08083
2.10038
2.12194
2.14554
2.17118
2.19889
2.22869
2.2606
2.29465
2.33086
2.36925
2.40986
2.45272
2.49785
2.54529
2.59507
2.64723
2.70179
2.7588
2.81828
2.88029
2.94485
3.01199
3.08177
3.1542
3.22933
3.30718
3.38778
3.47118
3.55738
3.64641
3.73829
3.83304
3.93067
4.03117
4.13455
4.24079
4.34989
4.4618
4.5765
4.69393
4.81401
4.93668
5.06183
5.18933
5.31903
5.45078
5.58435
5.71953
5.85604
5.99358
6.13178
6.27024
6.4085
6.54604
6.68228
6.81654
6.9481
7.07614
7.19972
7.31783
7.42934
7.53303
7.62751
7.71132
7.78282
7.84029
7.88183
7.90545
7.90918
7.89051
7.84726
7.77705
7.67749
7.54619
7.38085
7.17929
6.93955
6.65994
6.33915
5.97637
5.57132
5.12443
4.63682
4.11047
3.54819
2.95369
2.33164
1.67163
1.10089
0.119958
0.0985986
0.00878333
0.00807096
0.00708931
0.00606227
0.00500636
0.00392065
0.00281271
0.00169188
0.000575135
2.06227
2.06418
2.06802
2.07389
2.08185
2.09187
2.10392
2.118
2.13414
2.15233
2.17259
2.19494
2.2194
2.24598
2.27471
2.30561
2.3387
2.37401
2.41157
2.4514
2.49353
2.538
2.58485
2.63409
2.68577
2.73993
2.79661
2.85584
2.91766
2.98212
3.04924
3.11909
3.19169
3.26708
3.34531
3.4264
3.51041
3.59735
3.68727
3.78019
3.87613
3.97513
4.0772
4.18235
4.29059
4.40192
4.51633
4.63381
4.75433
4.87784
5.0043
5.13363
5.26575
5.40055
5.53788
5.67761
5.81954
5.96346
6.1091
6.25617
6.40433
6.55318
6.70227
6.85109
6.99906
7.14551
7.2897
7.4308
7.56785
7.69982
7.82552
7.94367
8.05282
8.15142
8.23773
8.30987
8.3658
8.40333
8.42016
8.41382
8.38154
8.3207
8.22853
8.10222
7.93905
7.73639
7.49177
7.20304
6.86846
6.48679
6.05744
5.58055
5.05719
4.48934
3.88001
3.23333
2.55457
1.83243
1.2073
0.130813
0.10722
0.00959768
0.00880053
0.00773119
0.00660348
0.00544955
0.00426508
0.00305717
0.00183499
0.000621446
2.12861
2.13058
2.13455
2.14062
2.14885
2.15921
2.17167
2.18624
2.20293
2.22174
2.2427
2.26582
2.29112
2.31862
2.34835
2.38032
2.41457
2.45112
2.48999
2.53123
2.57486
2.62091
2.66943
2.72044
2.77399
2.83012
2.88887
2.95028
3.0144
3.08127
3.15093
3.22343
3.29882
3.37714
3.45842
3.54273
3.63009
3.72056
3.81416
3.91094
4.01093
4.11416
4.22065
4.33045
4.44355
4.55997
4.67972
4.80279
4.92916
5.05882
5.19172
5.32781
5.467
5.60923
5.75436
5.90226
6.05276
6.20567
6.36074
6.51769
6.6762
6.8359
6.99634
7.15703
7.31739
7.47678
7.63444
7.78953
7.9411
8.08808
8.22927
8.36331
8.48872
8.60384
8.70683
8.79568
8.86818
8.92195
8.9544
8.96291
8.94434
8.89561
8.81361
8.69504
8.53667
8.3353
8.08793
7.79181
7.44463
7.04464
6.59077
6.08286
5.52172
4.90933
4.24891
3.54498
2.80353
2.01227
1.32652
0.142904
0.116711
0.010477
0.00958806
0.00841953
0.0071832
0.00592397
0.00463372
0.00332043
0.00199176
0.000672208
2.19287
2.19491
2.19901
2.20527
2.21376
2.22446
2.23732
2.25236
2.26958
2.28901
2.31064
2.33452
2.36064
2.38904
2.41974
2.45276
2.48813
2.52589
2.56605
2.60866
2.65375
2.70135
2.7515
2.80425
2.85963
2.91769
2.97847
3.04202
3.1084
3.17763
3.24978
3.3249
3.40303
3.48422
3.56853
3.656
3.74669
3.84063
3.93788
4.03848
4.14248
4.24991
4.36082
4.47523
4.59318
4.71469
4.83978
4.96846
5.10073
5.23657
5.37596
5.51887
5.66524
5.81501
5.96808
6.12432
6.2836
6.44573
6.6105
6.77766
6.94691
7.11789
7.29018
7.46331
7.63673
7.80979
7.98177
8.15181
8.31897
8.48217
8.64018
8.79162
8.93495
9.06842
9.19011
9.29787
9.38934
9.46192
9.51282
9.53893
9.53725
9.5038
9.43519
9.32759
9.17716
8.98008
8.73263
8.4314
8.07334
7.65603
7.17781
6.638
6.03709
5.37695
4.66095
3.89405
3.08305
2.21453
1.46088
0.156521
0.12725
0.0114252
0.010436
0.00915477
0.00780031
0.00642738
0.00502393
0.00359907
0.00216051
0.000728204
2.255
2.2571
2.26132
2.26777
2.27652
2.28754
2.30079
2.31629
2.33404
2.35405
2.37635
2.40095
2.42788
2.45715
2.48879
2.52284
2.55931
2.59824
2.63965
2.6836
2.73011
2.77922
2.83097
2.88541
2.94258
3.00252
3.0653
3.13095
3.19952
3.27108
3.34567
3.42335
3.50418
3.5882
3.67548
3.76607
3.86003
3.9574
4.05825
4.16264
4.2706
4.3822
4.49748
4.61649
4.73926
4.86585
4.99627
5.13055
5.26872
5.41076
5.55669
5.70648
5.8601
6.01751
6.17863
6.34336
6.51159
6.68316
6.8579
7.03557
7.2159
7.39857
7.5832
7.76933
7.95643
8.1439
8.33104
8.517
8.70084
8.88147
9.05769
9.22808
9.39105
9.54481
9.68734
9.81638
9.92941
10.0237
10.096
10.1432
10.1616
10.1472
10.0957
10.0029
9.86422
9.67508
9.43096
9.12758
8.76103
8.328
7.82603
7.25376
6.61118
5.89994
5.12343
4.28708
3.39856
2.44324
1.6128
0.171745
0.139241
0.0124437
0.0113468
0.0099377
0.00845354
0.00695771
0.00543331
0.00389048
0.00233671
0.000786902
2.31492
2.31708
2.32142
2.32806
2.33706
2.34839
2.36202
2.37796
2.39622
2.41681
2.43974
2.46505
2.49276
2.52288
2.55544
2.59047
2.62801
2.66808
2.71072
2.75597
2.80386
2.85444
2.90775
2.96383
3.02275
3.08453
3.14925
3.21694
3.28767
3.3615
3.43848
3.51867
3.60214
3.68893
3.77913
3.87278
3.96995
4.0707
4.1751
4.28321
4.39509
4.5108
4.63041
4.75397
4.88154
5.01316
5.1489
5.28877
5.43282
5.58108
5.73356
5.89027
6.05119
6.21631
6.38557
6.55891
6.73624
6.91745
7.10237
7.29082
7.48257
7.67732
7.87473
8.07439
8.27581
8.4784
8.6815
8.88433
9.08593
9.28525
9.48107
9.672
9.85642
10.0325
10.1981
10.351
10.4883
10.6073
10.7045
10.7763
10.8187
10.8275
10.7976
10.7241
10.6017
10.4249
10.1884
9.88671
9.51488
9.06849
8.54406
7.93926
7.25337
6.48756
5.64518
4.73205
3.75683
2.70349
1.7858
0.188826
0.152776
0.0135355
0.012302
0.0107628
0.00913953
0.00751161
0.00585835
0.00419121
0.00251671
0.000846435
2.37258
2.37479
2.37925
2.38607
2.39531
2.40694
2.42094
2.43731
2.45606
2.4772
2.50076
2.52676
2.55521
2.58615
2.61961
2.6556
2.69417
2.73535
2.77917
2.82568
2.87491
2.92692
2.98174
3.03943
3.10003
3.16361
3.23021
3.2999
3.37273
3.44877
3.52808
3.61073
3.69677
3.78628
3.87932
3.97596
4.07628
4.18035
4.28823
4.4
4.51574
4.63551
4.75939
4.88745
5.01976
5.15638
5.29738
5.44281
5.59273
5.74718
5.90621
6.06985
6.2381
6.41096
6.58843
6.77048
6.95703
7.14802
7.34333
7.5428
7.74625
7.95343
8.16404
8.37772
8.59403
8.81242
9.03229
9.2529
9.47332
9.69255
9.9094
10.1225
10.3302
10.5307
10.7218
10.901
11.0658
11.2127
11.3385
11.439
11.5099
11.5463
11.5432
11.4941
11.3934
11.2345
11.0108
10.7157
10.3429
9.88662
9.34192
8.70523
7.97477
7.15096
6.23692
5.23878
4.16628
3.00176
1.98513
0.208995
0.168242
0.0146949
0.0133315
0.0116331
0.00985519
0.0080841
0.00629405
0.00449714
0.00269842
0.000906192
2.42791
2.43018
2.43475
2.44174
2.45121
2.46314
2.4775
2.49428
2.5135
2.53518
2.55933
2.58599
2.61517
2.64691
2.68122
2.71814
2.75771
2.79996
2.84493
2.89265
2.94319
2.99657
3.05286
3.1121
3.17435
3.23966
3.30809
3.37972
3.45459
3.53278
3.61436
3.69938
3.78794
3.88009
3.97591
4.07548
4.17888
4.28618
4.39748
4.51284
4.63236
4.75611
4.88419
5.01668
5.15366
5.29522
5.44143
5.59236
5.7481
5.90872
6.07427
6.24481
6.42038
6.60101
6.78673
6.97753
7.1734
7.37429
7.58013
7.79082
8.00622
8.22613
8.4503
8.67844
8.91017
9.145
9.38239
9.62165
9.86193
10.1023
10.3416
10.5784
10.8113
11.0383
11.2573
11.4658
11.661
11.8396
11.9978
12.1314
12.2356
12.3051
12.3341
12.3159
12.2432
12.1087
11.9044
11.6222
11.2541
10.7927
10.2311
9.56423
8.78861
7.90362
6.91178
5.8194
4.63737
3.346
2.21591
0.233774
0.187229
0.0159204
0.0144099
0.0125367
0.0105913
0.00866657
0.00673322
0.0048026
0.00287809
0.000964774
2.48086
2.48318
2.48786
2.49501
2.50471
2.51692
2.53161
2.54879
2.56847
2.59067
2.6154
2.64269
2.67258
2.70507
2.74021
2.77803
2.81856
2.86184
2.90791
2.95681
3.0086
3.06332
3.12102
3.18176
3.24559
3.31258
3.38279
3.45629
3.53314
3.61341
3.69718
3.78452
3.87551
3.97023
4.06876
4.17117
4.27757
4.38803
4.50265
4.62152
4.74473
4.87239
5.00459
5.14142
5.283
5.42941
5.58074
5.73711
5.89861
6.06533
6.23735
6.41475
6.59761