/*--------------------------------*- C++ -*----------------------------------*\
| =========                 |                                                 |
| \\      /  F ield         | OpenFOAM: The Open Source CFD Toolbox           |
|  \\    /   O peration     | Version:  v2106                                 |
|   \\  /    A nd           | Website:  www.openfoam.com                      |
|    \\/     M anipulation  |                                                 |
\*---------------------------------------------------------------------------*/
FoamFile
{
    version     2.0;
    format      ascii;
    arch        "LSB;label=32;scalar=64";
    class       surfaceScalarField;
    location    "0.2";
    object      phi;
}
// * * * * * * * * * * * * * * * * * * * * * * * * * * * * * * * * * * * * * //

dimensions      [0 3 -1 0 0 0 0];

oriented        oriented;

internalField   nonuniform List<scalar> 
59425
(
-6.57937e-12
-1.35432e-08
-1.37196e-11
-1.35605e-08
-2.11502e-11
-1.35849e-08
-2.86768e-11
-1.36217e-08
-3.61343e-11
-1.36718e-08
-4.35159e-11
-1.37354e-08
-5.08713e-11
-1.38121e-08
-5.82327e-11
-1.39019e-08
-6.56168e-11
-1.40047e-08
-7.30318e-11
-1.41205e-08
-8.04823e-11
-1.42494e-08
-8.79715e-11
-1.43914e-08
-9.55034e-11
-1.45467e-08
-1.03088e-10
-1.47154e-08
-1.10741e-10
-1.48974e-08
-1.18455e-10
-1.50929e-08
-1.26217e-10
-1.53019e-08
-1.34013e-10
-1.55246e-08
-1.41842e-10
-1.5761e-08
-1.49721e-10
-1.60112e-08
-1.5765e-10
-1.62755e-08
-1.65626e-10
-1.65537e-08
-1.73647e-10
-1.68461e-08
-1.81722e-10
-1.71526e-08
-1.8986e-10
-1.74735e-08
-1.98042e-10
-1.78087e-08
-2.06245e-10
-1.81582e-08
-2.14451e-10
-1.85221e-08
-2.22654e-10
-1.89006e-08
-2.30853e-10
-1.92935e-08
-2.39045e-10
-1.97009e-08
-2.47223e-10
-2.01228e-08
-2.55361e-10
-2.05591e-08
-2.63428e-10
-2.10097e-08
-2.71393e-10
-2.14745e-08
-2.79245e-10
-2.19533e-08
-2.86967e-10
-2.24461e-08
-2.94531e-10
-2.29525e-08
-3.01905e-10
-2.34723e-08
-3.09053e-10
-2.40051e-08
-3.15937e-10
-2.45506e-08
-3.22514e-10
-2.51082e-08
-3.28737e-10
-2.56774e-08
-3.34557e-10
-2.62576e-08
-3.3992e-10
-2.68481e-08
-3.44782e-10
-2.74481e-08
-3.49085e-10
-2.80567e-08
-3.52742e-10
-2.86728e-08
-3.55663e-10
-2.92952e-08
-3.57774e-10
-2.99228e-08
-3.59003e-10
-3.05542e-08
-3.59263e-10
-3.11877e-08
-3.58463e-10
-3.18217e-08
-3.56508e-10
-3.24542e-08
-3.53291e-10
-3.30833e-08
-3.48691e-10
-3.37066e-08
-3.42595e-10
-3.43217e-08
-3.34891e-10
-3.4926e-08
-3.25466e-10
-3.55167e-08
-3.14216e-10
-3.60907e-08
-3.01013e-10
-3.66447e-08
-2.85711e-10
-3.71752e-08
-2.6817e-10
-3.76785e-08
-2.48267e-10
-3.81506e-08
-2.25899e-10
-3.85874e-08
-2.00959e-10
-3.89845e-08
-1.73346e-10
-3.93375e-08
-1.42966e-10
-3.96414e-08
-1.09736e-10
-3.98915e-08
-7.35928e-11
-4.00826e-08
-3.44915e-11
-4.02096e-08
7.60637e-12
-4.02673e-08
5.2663e-11
-4.02509e-08
1.00665e-10
-4.0154e-08
1.51529e-10
-3.99721e-08
2.05134e-10
-3.96998e-08
2.61322e-10
-3.93324e-08
3.19897e-10
-3.88652e-08
3.80634e-10
-3.82938e-08
4.43275e-10
-3.76142e-08
5.07516e-10
-3.6823e-08
5.73e-10
-3.59172e-08
6.39334e-10
-3.48945e-08
7.06092e-10
-3.37534e-08
7.72806e-10
-3.2493e-08
8.38973e-10
-3.11133e-08
9.04055e-10
-2.96154e-08
9.67496e-10
-2.80012e-08
1.02874e-09
-2.62737e-08
1.08722e-09
-2.44368e-08
1.14243e-09
-2.24956e-08
1.19384e-09
-2.04561e-08
1.24105e-09
-1.83255e-08
1.2837e-09
-1.61117e-08
1.32162e-09
-1.38241e-08
1.35471e-09
-1.1473e-08
1.38315e-09
-9.07229e-09
1.40657e-09
-6.62938e-09
1.41981e-09
-4.38955e-09
1.42598e-09
-1.5422e-09
-3.29533e-11
-6.6623e-09
2.15406e-10
-2.78082e-08
1.26329e-09
-2.82188e-08
1.73643e-09
-2.51387e-08
2.07347e-09
-2.17988e-08
2.31023e-09
-1.82009e-08
2.4833e-09
-1.44011e-08
2.60374e-09
-1.04511e-08
2.67787e-09
-6.4628e-09
-2.85565e-09
-1.91383e-11
-1.35241e-08
-3.82842e-11
-1.35414e-08
-5.74697e-11
-1.35657e-08
-7.6748e-11
-1.36024e-08
-9.61057e-11
-1.36524e-08
-1.15505e-10
-1.3716e-08
-1.3495e-10
-1.37927e-08
-1.54458e-10
-1.38824e-08
-1.74044e-10
-1.39851e-08
-1.9372e-10
-1.41008e-08
-2.13493e-10
-1.42296e-08
-2.33373e-10
-1.43716e-08
-2.53368e-10
-1.45267e-08
-2.73493e-10
-1.46952e-08
-2.93762e-10
-1.48771e-08
-3.14174e-10
-1.50725e-08
-3.34719e-10
-1.52814e-08
-3.55387e-10
-1.55039e-08
-3.76176e-10
-1.57402e-08
-3.97098e-10
-1.59903e-08
-4.18152e-10
-1.62544e-08
-4.39333e-10
-1.65325e-08
-4.60637e-10
-1.68248e-08
-4.82065e-10
-1.71312e-08
-5.03613e-10
-1.7452e-08
-5.25258e-10
-1.7787e-08
-5.46968e-10
-1.81365e-08
-5.68713e-10
-1.85004e-08
-5.90469e-10
-1.88788e-08
-6.12217e-10
-1.92717e-08
-6.33932e-10
-1.96792e-08
-6.55581e-10
-2.01012e-08
-6.77114e-10
-2.05376e-08
-6.98472e-10
-2.09883e-08
-7.19591e-10
-2.14534e-08
-7.40418e-10
-2.19325e-08
-7.60892e-10
-2.24256e-08
-7.8094e-10
-2.29325e-08
-8.00477e-10
-2.34528e-08
-8.19411e-10
-2.39862e-08
-8.37639e-10
-2.45324e-08
-8.55049e-10
-2.50908e-08
-8.7152e-10
-2.56609e-08
-8.86917e-10
-2.62422e-08
-9.01101e-10
-2.68339e-08
-9.13926e-10
-2.74353e-08
-9.25226e-10
-2.80454e-08
-9.34808e-10
-2.86632e-08
-9.42461e-10
-2.92876e-08
-9.47978e-10
-2.99173e-08
-9.51147e-10
-3.0551e-08
-9.51736e-10
-3.11871e-08
-9.49494e-10
-3.18239e-08
-9.44163e-10
-3.24596e-08
-9.35462e-10
-3.3092e-08
-9.2309e-10
-3.37189e-08
-9.06746e-10
-3.4338e-08
-8.86124e-10
-3.49467e-08
-8.60911e-10
-3.55419e-08
-8.30795e-10
-3.61209e-08
-7.9544e-10
-3.66801e-08
-7.54498e-10
-3.72162e-08
-7.07625e-10
-3.77254e-08
-6.54497e-10
-3.82037e-08
-5.94812e-10
-3.86471e-08
-5.2828e-10
-3.90511e-08
-4.54632e-10
-3.94111e-08
-3.73619e-10
-3.97224e-08
-2.85034e-10
-3.99801e-08
-1.8871e-10
-4.01789e-08
-8.45384e-11
-4.03138e-08
2.74995e-11
-4.03794e-08
1.47538e-10
-4.03709e-08
2.75366e-10
-4.02819e-08
4.10822e-10
-4.01075e-08
5.53623e-10
-3.98426e-08
7.0339e-10
-3.94822e-08
8.59628e-10
-3.90215e-08
1.02174e-09
-3.84559e-08
1.18903e-09
-3.77815e-08
1.36066e-09
-3.69946e-08
1.53568e-09
-3.60922e-08
1.71303e-09
-3.50719e-08
1.89153e-09
-3.39319e-08
2.06993e-09
-3.26714e-08
2.24684e-09
-3.12902e-08
2.42081e-09
-2.97894e-08
2.59035e-09
-2.81708e-08
2.75391e-09
-2.64373e-08
2.90996e-09
-2.45928e-08
3.05697e-09
-2.26426e-08
3.19347e-09
-2.05926e-08
3.31809e-09
-1.84501e-08
3.42963e-09
-1.62233e-08
3.5271e-09
-1.39215e-08
3.60982e-09
-1.15557e-08
3.67768e-09
-9.14015e-09
3.72781e-09
-6.67952e-09
3.7665e-09
-4.42824e-09
3.77039e-09
-1.54609e-09
3.96565e-09
-6.85756e-09
4.26904e-09
-2.81116e-08
4.50018e-09
-2.84499e-08
4.93746e-09
-2.5576e-08
5.35388e-09
-2.22152e-08
5.71018e-09
-1.85572e-08
5.994e-09
-1.46848e-08
6.20129e-09
-1.06583e-08
6.33309e-09
-6.59458e-09
-2.92634e-09
-3.18764e-11
-1.34922e-08
-6.37881e-11
-1.35094e-08
-9.57492e-11
-1.35337e-08
-1.27789e-10
-1.35703e-08
-1.59917e-10
-1.36203e-08
-1.92132e-10
-1.36838e-08
-2.24449e-10
-1.37604e-08
-2.56886e-10
-1.385e-08
-2.89459e-10
-1.39525e-08
-3.22184e-10
-1.40681e-08
-3.55077e-10
-1.41967e-08
-3.88149e-10
-1.43385e-08
-4.21417e-10
-1.44935e-08
-4.54896e-10
-1.46618e-08
-4.886e-10
-1.48434e-08
-5.22532e-10
-1.50385e-08
-5.5669e-10
-1.52472e-08
-5.91068e-10
-1.54695e-08
-6.25665e-10
-1.57056e-08
-6.60488e-10
-1.59555e-08
-6.95533e-10
-1.62194e-08
-7.30793e-10
-1.64973e-08
-7.66261e-10
-1.67893e-08
-8.01927e-10
-1.70956e-08
-8.37777e-10
-1.74161e-08
-8.73782e-10
-1.7751e-08
-9.09901e-10
-1.81004e-08
-9.46095e-10
-1.84642e-08
-9.82323e-10
-1.88426e-08
-1.01854e-09
-1.92355e-08
-1.05471e-09
-1.9643e-08
-1.09075e-09
-2.00651e-08
-1.12661e-09
-2.05017e-08
-1.16218e-09
-2.09528e-08
-1.19738e-09
-2.14182e-08
-1.23211e-09
-2.18978e-08
-1.26625e-09
-2.23915e-08
-1.29969e-09
-2.28991e-08
-1.33229e-09
-2.34202e-08
-1.36389e-09
-2.39546e-08
-1.39433e-09
-2.45019e-08
-1.42341e-09
-2.50617e-08
-1.45095e-09
-2.56334e-08
-1.47671e-09
-2.62165e-08
-1.50047e-09
-2.68102e-08
-1.52196e-09
-2.74138e-08
-1.54092e-09
-2.80265e-08
-1.55702e-09
-2.86471e-08
-1.56995e-09
-2.92747e-08
-1.57935e-09
-2.99079e-08
-1.58485e-09
-3.05455e-08
-1.58607e-09
-3.11859e-08
-1.58259e-09
-3.18274e-08
-1.57398e-09
-3.24682e-08
-1.55977e-09
-3.31062e-08
-1.53946e-09
-3.37393e-08
-1.51256e-09
-3.4365e-08
-1.47855e-09
-3.49807e-08
-1.4369e-09
-3.55836e-08
-1.38707e-09
-3.61707e-08
-1.32851e-09
-3.67387e-08
-1.26064e-09
-3.72841e-08
-1.18291e-09
-3.78031e-08
-1.09477e-09
-3.82919e-08
-9.95702e-10
-3.87462e-08
-8.85216e-10
-3.91616e-08
-7.62852e-10
-3.95335e-08
-6.28196e-10
-3.98571e-08
-4.80893e-10
-4.01274e-08
-3.20666e-10
-4.03392e-08
-1.47328e-10
-4.04872e-08
3.91573e-11
-4.05659e-08
2.39015e-10
-4.05708e-08
4.51921e-10
-4.04948e-08
6.7761e-10
-4.03332e-08
9.15642e-10
-4.00807e-08
1.1654e-09
-3.9732e-08
1.42609e-09
-3.92822e-08
1.69672e-09
-3.87266e-08
1.97611e-09
-3.80609e-08
2.26288e-09
-3.72814e-08
2.55544e-09
-3.63848e-08
2.85201e-09
-3.53685e-08
3.15062e-09
-3.42305e-08
3.44913e-09
-3.29699e-08
3.74524e-09
-3.15863e-08
4.03652e-09
-3.00807e-08
4.32043e-09
-2.84547e-08
4.59438e-09
-2.67112e-08
4.85575e-09
-2.48542e-08
5.10194e-09
-2.28888e-08
5.33044e-09
-2.08211e-08
5.53884e-09
-1.86585e-08
5.72491e-09
-1.64094e-08
5.88668e-09
-1.40833e-08
6.02242e-09
-1.16915e-08
6.13062e-09
-9.24835e-09
6.20891e-09
-6.75782e-09
6.25843e-09
-4.47776e-09
6.26908e-09
-1.55674e-09
6.41348e-09
-7.00196e-09
7.03249e-09
-2.87306e-08
7.66358e-09
-2.9081e-08
8.33989e-09
-2.62523e-08
8.96645e-09
-2.28417e-08
9.51014e-09
-1.91008e-08
9.94992e-09
-1.51246e-08
1.0275e-08
-1.09834e-08
1.0484e-08
-6.80355e-09
-3.03985e-09
-4.46275e-11
-1.34476e-08
-8.9308e-11
-1.34648e-08
-1.34046e-10
-1.3489e-08
-1.78869e-10
-1.35255e-08
-2.23801e-10
-1.35754e-08
-2.68861e-10
-1.36387e-08
-3.14071e-10
-1.37152e-08
-3.59455e-10
-1.38046e-08
-4.05034e-10
-1.3907e-08
-4.5083e-10
-1.40223e-08
-4.96863e-10
-1.41507e-08
-5.43153e-10
-1.42922e-08
-5.89718e-10
-1.44469e-08
-6.36578e-10
-1.46149e-08
-6.83746e-10
-1.47962e-08
-7.31232e-10
-1.49911e-08
-7.79038e-10
-1.51994e-08
-8.27163e-10
-1.54214e-08
-8.75607e-10
-1.56572e-08
-9.24373e-10
-1.59067e-08
-9.73457e-10
-1.61703e-08
-1.02285e-09
-1.64479e-08
-1.07253e-09
-1.67396e-08
-1.1225e-09
-1.70456e-08
-1.17272e-09
-1.73659e-08
-1.22315e-09
-1.77006e-08
-1.27376e-09
-1.80498e-08
-1.32448e-09
-1.84135e-08
-1.37527e-09
-1.87918e-08
-1.42606e-09
-1.91847e-08
-1.47678e-09
-1.95923e-08
-1.52734e-09
-2.00146e-08
-1.57764e-09
-2.04514e-08
-1.62756e-09
-2.09028e-08
-1.67698e-09
-2.13687e-08
-1.72576e-09
-2.1849e-08
-1.77375e-09
-2.23435e-08
-1.82076e-09
-2.2852e-08
-1.86662e-09
-2.33744e-08
-1.9111e-09
-2.39102e-08
-1.95397e-09
-2.44591e-08
-1.99498e-09
-2.50207e-08
-2.03383e-09
-2.55946e-08
-2.07024e-09
-2.61801e-08
-2.10386e-09
-2.67766e-08
-2.13434e-09
-2.73833e-08
-2.1613e-09
-2.79995e-08
-2.18429e-09
-2.86241e-08
-2.20287e-09
-2.92561e-08
-2.21654e-09
-2.98943e-08
-2.2248e-09
-3.05373e-08
-2.2271e-09
-3.11836e-08
-2.22284e-09
-3.18317e-08
-2.21143e-09
-3.24796e-08
-2.19219e-09
-3.31255e-08
-2.16447e-09
-3.3767e-08
-2.12753e-09
-3.44019e-08
-2.08067e-09
-3.50276e-08
-2.02312e-09
-3.56412e-08
-1.95411e-09
-3.62397e-08
-1.87287e-09
-3.682e-08
-1.7786e-09
-3.73784e-08
-1.67051e-09
-3.79112e-08
-1.54782e-09
-3.84146e-08
-1.40981e-09
-3.88842e-08
-1.25575e-09
-3.93157e-08
-1.085e-09
-3.97043e-08
-8.96945e-10
-4.00452e-08
-6.91083e-10
-4.03333e-08
-4.66999e-10
-4.05633e-08
-2.24414e-10
-4.07298e-08
3.67707e-11
-4.08271e-08
3.1673e-10
-4.08508e-08
6.15187e-10
-4.07933e-08
9.31773e-10
-4.06498e-08
1.26588e-09
-4.04148e-08
1.61668e-09
-4.00828e-08
1.98305e-09
-3.96486e-08
2.36363e-09
-3.91072e-08
2.75677e-09
-3.84541e-08
3.16053e-09
-3.76852e-08
3.57267e-09
-3.6797e-08
3.99071e-09
-3.57865e-08
4.41184e-09
-3.46517e-08
4.83305e-09
-3.33911e-08
5.25107e-09
-3.20044e-08
5.66246e-09
-3.04921e-08
6.06362e-09
-2.88559e-08
6.45086e-09
-2.70985e-08
6.82043e-09
-2.52238e-08
7.16862e-09
-2.3237e-08
7.49179e-09
-2.11443e-08
7.78648e-09
-1.89532e-08
8.04941e-09
-1.66723e-08
8.27762e-09
-1.43115e-08
8.46842e-09
-1.18823e-08
8.61939e-09
-9.39932e-09
8.72807e-09
-6.8665e-09
8.79594e-09
-4.54563e-09
8.81434e-09
-1.57514e-09
8.93718e-09
-7.12479e-09
9.83842e-09
-2.96318e-08
1.08349e-08
-3.00774e-08
1.1813e-08
-2.72303e-08
1.27006e-08
-2.37292e-08
1.34661e-08
-1.98663e-08
1.40854e-08
-1.57438e-08
1.45439e-08
-1.14419e-08
1.48394e-08
-7.09898e-09
-3.20087e-09
-5.73532e-11
-1.33902e-08
-1.14768e-10
-1.34074e-08
-1.7225e-10
-1.34315e-08
-2.29833e-10
-1.34679e-08
-2.87552e-10
-1.35176e-08
-3.45438e-10
-1.35808e-08
-4.0352e-10
-1.36571e-08
-4.61829e-10
-1.37463e-08
-5.20392e-10
-1.38484e-08
-5.79238e-10
-1.39635e-08
-6.38393e-10
-1.40915e-08
-6.97883e-10
-1.42327e-08
-7.5773e-10
-1.43871e-08
-8.17956e-10
-1.45547e-08
-8.7858e-10
-1.47356e-08
-9.39613e-10
-1.493e-08
-1.00106e-09
-1.5138e-08
-1.06293e-09
-1.53595e-08
-1.12523e-09
-1.55949e-08
-1.18794e-09
-1.5844e-08
-1.25107e-09
-1.61072e-08
-1.31461e-09
-1.63843e-08
-1.37854e-09
-1.66757e-08
-1.44283e-09
-1.69813e-08
-1.50745e-09
-1.73013e-08
-1.57236e-09
-1.76357e-08
-1.6375e-09
-1.79846e-08
-1.70282e-09
-1.83482e-08
-1.76823e-09
-1.87264e-08
-1.83367e-09
-1.91193e-08
-1.89902e-09
-1.9527e-08
-1.9642e-09
-1.99494e-08
-2.02905e-09
-2.03866e-08
-2.09346e-09
-2.08384e-08
-2.15724e-09
-2.1305e-08
-2.22024e-09
-2.1786e-08
-2.28224e-09
-2.22815e-08
-2.34302e-09
-2.27913e-08
-2.40235e-09
-2.3315e-08
-2.45994e-09
-2.38526e-08
-2.51551e-09
-2.44035e-08
-2.56872e-09
-2.49675e-08
-2.61921e-09
-2.55441e-08
-2.6666e-09
-2.61327e-08
-2.71046e-09
-2.67327e-08
-2.75032e-09
-2.73435e-08
-2.7857e-09
-2.79642e-08
-2.81603e-09
-2.85938e-08
-2.84075e-09
-2.92314e-08
-2.85923e-09
-2.98758e-08
-2.8708e-09
-3.05257e-08
-2.87476e-09
-3.11797e-08
-2.87036e-09
-3.18361e-08
-2.8568e-09
-3.24932e-08
-2.83324e-09
-3.3149e-08
-2.7988e-09
-3.38015e-08
-2.75258e-09
-3.44482e-08
-2.69362e-09
-3.50865e-08
-2.62095e-09
-3.57139e-08
-2.53357e-09
-3.63271e-08
-2.43045e-09
-3.69231e-08
-2.31057e-09
-3.74983e-08
-2.1729e-09
-3.80489e-08
-2.01643e-09
-3.85711e-08
-1.84019e-09
-3.90605e-08
-1.64324e-09
-3.95126e-08
-1.4247e-09
-3.99229e-08
-1.18378e-09
-4.02861e-08
-9.19776e-10
-4.05973e-08
-6.32126e-10
-4.0851e-08
-3.20402e-10
-4.10415e-08
1.58491e-11
-4.11634e-08
3.7571e-10
-4.12107e-08
7.6006e-10
-4.11777e-08
1.16814e-09
-4.1058e-08
1.59919e-09
-4.08459e-08
2.05211e-09
-4.05358e-08
2.52554e-09
-4.0122e-08
3.01772e-09
-3.95994e-08
3.52654e-09
-3.89629e-08
4.0495e-09
-3.82082e-08
4.58373e-09
-3.73313e-08
5.12599e-09
-3.63288e-08
5.67266e-09
-3.51984e-08
6.21981e-09
-3.39383e-08
6.76318e-09
-3.25478e-08
7.29827e-09
-3.10272e-08
7.82037e-09
-2.9378e-08
8.32462e-09
-2.76027e-08
8.8061e-09
-2.57053e-08
9.2599e-09
-2.36908e-08
9.68125e-09
-2.15656e-08
1.00655e-08
-1.93374e-08
1.04083e-08
-1.70151e-08
1.07058e-08
-1.4609e-08
1.09542e-08
-1.21308e-08
1.11507e-08
-9.59576e-09
1.12923e-08
-7.00809e-09
1.13819e-08
-4.63525e-09
1.1405e-08
-1.59822e-09
1.15432e-08
-7.26296e-09
1.27307e-08
-3.08193e-08
1.40776e-08
-3.14243e-08
1.53846e-08
-2.85372e-08
1.65641e-08
-2.49085e-08
1.75774e-08
-2.08795e-08
1.83962e-08
-1.65625e-08
1.90023e-08
-1.20479e-08
1.9393e-08
-7.48965e-09
-3.41434e-09
-7.00417e-11
-1.33202e-08
-1.40153e-10
-1.33372e-08
-2.10344e-10
-1.33613e-08
-2.80656e-10
-1.33976e-08
-3.51133e-10
-1.34472e-08
-4.21814e-10
-1.35101e-08
-4.92739e-10
-1.35862e-08
-5.63943e-10
-1.36751e-08
-6.35463e-10
-1.37769e-08
-7.07333e-10
-1.38916e-08
-7.79586e-10
-1.40193e-08
-8.52252e-10
-1.416e-08
-9.2536e-10
-1.4314e-08
-9.98936e-10
-1.44811e-08
-1.073e-09
-1.46616e-08
-1.14757e-09
-1.48555e-08
-1.22266e-09
-1.50629e-08
-1.29827e-09
-1.52839e-08
-1.37442e-09
-1.55187e-08
-1.45109e-09
-1.57674e-08
-1.52828e-09
-1.603e-08
-1.60599e-09
-1.63066e-08
-1.68418e-09
-1.65975e-08
-1.76282e-09
-1.69027e-08
-1.84189e-09
-1.72222e-08
-1.92133e-09
-1.75563e-08
-2.00107e-09
-1.79049e-08
-2.08104e-09
-1.82682e-08
-2.16117e-09
-1.86463e-08
-2.24134e-09
-1.90391e-08
-2.32145e-09
-1.94469e-08
-2.40136e-09
-1.98695e-08
-2.48092e-09
-2.0307e-08
-2.55996e-09
-2.07594e-08
-2.63829e-09
-2.12266e-08
-2.71569e-09
-2.17086e-08
-2.79193e-09
-2.22053e-08
-2.86673e-09
-2.27165e-08
-2.9398e-09
-2.3242e-08
-3.01081e-09
-2.37816e-08
-3.0794e-09
-2.43349e-08
-3.14517e-09
-2.49018e-08
-3.2077e-09
-2.54816e-08
-3.26649e-09
-2.60739e-08
-3.32105e-09
-2.66782e-08
-3.3708e-09
-2.72938e-08
-3.41514e-09
-2.79198e-08
-3.4534e-09
-2.85556e-08
-3.48489e-09
-2.92e-08
-3.50883e-09
-2.98519e-08
-3.52443e-09
-3.05102e-08
-3.53081e-09
-3.11733e-08
-3.52705e-09
-3.18399e-08
-3.51218e-09
-3.25081e-08
-3.48517e-09
-3.31761e-08
-3.44495e-09
-3.38417e-08
-3.39039e-09
-3.45027e-08
-3.32032e-09
-3.51566e-08
-3.23353e-09
-3.58007e-08
-3.12879e-09
-3.64319e-08
-3.00482e-09
-3.70471e-08
-2.86036e-09
-3.76428e-08
-2.69413e-09
-3.82152e-08
-2.50486e-09
-3.87604e-08
-2.29133e-09
-3.9274e-08
-2.05236e-09
-3.97517e-08
-1.78683e-09
-4.01884e-08
-1.49373e-09
-4.05793e-08
-1.17217e-09
-4.09189e-08
-8.21393e-10
-4.12018e-08
-4.4082e-10
-4.14221e-08
-2.99766e-11
-4.15743e-08
4.10402e-10
-4.16511e-08
8.81166e-10
-4.16485e-08
1.38153e-09
-4.15584e-08
1.91056e-09
-4.1375e-08
2.46703e-09
-4.10923e-08
3.04927e-09
-4.07043e-08
3.65516e-09
-4.02053e-08
4.28214e-09
-3.959e-08
4.92717e-09
-3.88533e-08
5.58673e-09
-3.79908e-08
6.25681e-09
-3.69989e-08
6.93296e-09
-3.58746e-08
7.61028e-09
-3.46156e-08
8.2835e-09
-3.3221e-08
8.94698e-09
-3.16907e-08
9.59485e-09
-3.00259e-08
1.0221e-08
-2.82289e-08
1.08193e-08
-2.63036e-08
1.13835e-08
-2.4255e-08
1.19076e-08
-2.20897e-08
1.23858e-08
-1.98156e-08
1.28125e-08
-1.74419e-08
1.31827e-08
-1.49792e-08
1.3492e-08
-1.24401e-08
1.37366e-08
-9.84035e-09
1.3913e-08
-7.18452e-09
1.40252e-08
-4.74747e-09
1.40532e-08
-1.62614e-09
1.42195e-08
-7.42928e-09
1.57179e-08
-3.23176e-08
1.7433e-08
-3.31393e-08
1.9097e-08
-3.02012e-08
2.05975e-08
-2.64089e-08
2.18849e-08
-2.21668e-08
2.29245e-08
-1.7602e-08
2.36938e-08
-1.28172e-08
2.41899e-08
-7.98575e-09
-3.68627e-09
-8.2685e-11
-1.32375e-08
-1.6545e-10
-1.32545e-08
-2.48309e-10
-1.32785e-08
-3.31311e-10
-1.33146e-08
-4.14507e-10
-1.3364e-08
-4.97946e-10
-1.34267e-08
-5.81676e-10
-1.35025e-08
-6.6574e-10
-1.3591e-08
-7.50183e-10
-1.36924e-08
-8.35044e-10
-1.38067e-08
-9.20365e-10
-1.3934e-08
-1.00618e-09
-1.40742e-08
-1.09253e-09
-1.42276e-08
-1.17943e-09
-1.43942e-08
-1.26692e-09
-1.45741e-08
-1.35501e-09
-1.47674e-08
-1.44373e-09
-1.49742e-08
-1.53308e-09
-1.51946e-08
-1.62308e-09
-1.54287e-08
-1.71371e-09
-1.56767e-08
-1.80498e-09
-1.59387e-08
-1.89687e-09
-1.62148e-08
-1.98936e-09
-1.6505e-08
-2.0824e-09
-1.68096e-08
-2.17597e-09
-1.71287e-08
-2.26999e-09
-1.74622e-08
-2.3644e-09
-1.78105e-08
-2.45912e-09
-1.81735e-08
-2.55405e-09
-1.85513e-08
-2.64908e-09
-1.89441e-08
-2.74407e-09
-1.93519e-08
-2.83887e-09
-1.97747e-08
-2.93331e-09
-2.02126e-08
-3.02718e-09
-2.06655e-08
-3.12027e-09
-2.11336e-08
-3.21232e-09
-2.16166e-08
-3.30306e-09
-2.21146e-08
-3.39217e-09
-2.26274e-08
-3.47932e-09
-2.31549e-08
-3.5641e-09
-2.36968e-08
-3.64612e-09
-2.42529e-08
-3.72489e-09
-2.4823e-08
-3.79992e-09
-2.54066e-08
-3.87064e-09
-2.60032e-08
-3.93645e-09
-2.66124e-08
-3.9967e-09
-2.72335e-08
-4.05066e-09
-2.78659e-08
-4.09756e-09
-2.85087e-08
-4.13657e-09
-2.9161e-08
-4.1668e-09
-2.98217e-08
-4.18728e-09
-3.04897e-08
-4.197e-09
-3.11636e-08
-4.19486e-09
-3.18421e-08
-4.17971e-09
-3.25233e-08
-4.15034e-09
-3.32055e-08
-4.10545e-09
-3.38866e-08
-4.04372e-09
-3.45645e-08
-3.96374e-09
-3.52367e-08
-3.86407e-09
-3.59004e-08
-3.74323e-09
-3.65528e-08
-3.59969e-09
-3.71907e-08
-3.43193e-09
-3.78106e-08
-3.23839e-09
-3.84088e-08
-3.01755e-09
-3.89812e-08
-2.76791e-09
-3.95237e-08
-2.48802e-09
-4.00316e-08
-2.17652e-09
-4.05e-08
-1.83213e-09
-4.09237e-08
-1.45375e-09
-4.12973e-08
-1.04043e-09
-4.16151e-08
-5.91445e-10
-4.18712e-08
-1.06378e-10
-4.20594e-08
4.14962e-10
-4.21725e-08
9.72786e-10
-4.22063e-08
1.5663e-09
-4.21519e-08
2.1946e-09
-4.20033e-08
2.85628e-09
-4.1754e-08
3.54942e-09
-4.13975e-08
4.2716e-09
-4.09275e-08
5.01979e-09
-4.03382e-08
5.79041e-09
-3.96239e-08
6.57928e-09
-3.87797e-08
7.38164e-09
-3.78013e-08
8.19214e-09
-3.66851e-08
9.00491e-09
-3.54284e-08
9.81358e-09
-3.40297e-08
1.06113e-08
-3.24885e-08
1.1391e-08
-3.08056e-08
1.21453e-08
-2.89832e-08
1.28665e-08
-2.70248e-08
1.35471e-08
-2.49357e-08
1.41798e-08
-2.27224e-08
1.47573e-08
-2.03931e-08
1.52729e-08
-1.79575e-08
1.57205e-08
-1.54267e-08
1.60944e-08
-1.2814e-08
1.63902e-08
-1.01361e-08
1.66036e-08
-7.39793e-09
1.67395e-08
-4.88337e-09
1.67728e-08
-1.65945e-09
1.69728e-08
-7.62919e-09
1.88145e-08
-3.41592e-08
2.09327e-08
-3.52572e-08
2.29907e-08
-3.22591e-08
2.48474e-08
-2.82656e-08
2.64401e-08
-2.37594e-08
2.77261e-08
-1.88878e-08
2.86777e-08
-1.37687e-08
2.92918e-08
-8.59979e-09
-4.02416e-09
-9.5277e-11
-1.31422e-08
-1.90646e-10
-1.31591e-08
-2.86124e-10
-1.3183e-08
-3.81766e-10
-1.3219e-08
-4.77634e-10
-1.32681e-08
-5.73786e-10
-1.33306e-08
-6.70277e-10
-1.3406e-08
-7.67159e-10
-1.34942e-08
-8.64483e-10
-1.35951e-08
-9.62298e-10
-1.37089e-08
-1.06065e-09
-1.38356e-08
-1.15958e-09
-1.39753e-08
-1.25913e-09
-1.41281e-08
-1.35934e-09
-1.4294e-08
-1.46023e-09
-1.44732e-08
-1.56183e-09
-1.46658e-08
-1.66417e-09
-1.48718e-08
-1.76726e-09
-1.50915e-08
-1.8711e-09
-1.53249e-08
-1.97571e-09
-1.55721e-08
-2.08107e-09
-1.58333e-08
-2.18717e-09
-1.61087e-08
-2.29398e-09
-1.63982e-08
-2.40147e-09
-1.67021e-08
-2.50958e-09
-1.70205e-08
-2.61826e-09
-1.73536e-08
-2.72743e-09
-1.77013e-08
-2.83699e-09
-1.80639e-08
-2.94685e-09
-1.84415e-08
-3.05686e-09
-1.88341e-08
-3.16689e-09
-1.92419e-08
-3.27675e-09
-1.96649e-08
-3.38626e-09
-2.01031e-08
-3.49519e-09
-2.05566e-08
-3.60329e-09
-2.10255e-08
-3.71027e-09
-2.15096e-08
-3.81583e-09
-2.2009e-08
-3.9196e-09
-2.25236e-08
-4.0212e-09
-2.30533e-08
-4.12018e-09
-2.35978e-08
-4.21608e-09
-2.41571e-08
-4.30837e-09
-2.47307e-08
-4.39645e-09
-2.53185e-08
-4.47971e-09
-2.592e-08
-4.55744e-09
-2.65347e-08
-4.62889e-09
-2.71621e-08
-4.69325e-09
-2.78016e-08
-4.74962e-09
-2.84523e-08
-4.79706e-09
-2.91136e-08
-4.83452e-09
-2.97843e-08
-4.86092e-09
-3.04633e-08
-4.87506e-09
-3.11495e-08
-4.8757e-09
-3.18415e-08
-4.86149e-09
-3.25375e-08
-4.83102e-09
-3.3236e-08
-4.78282e-09
-3.39349e-08
-4.7153e-09
-3.46321e-08
-4.62686e-09
-3.53251e-08
-4.5158e-09
-3.60115e-08
-4.38037e-09
-3.66883e-08
-4.2188e-09
-3.73523e-08
-4.02927e-09
-3.80001e-08
-3.80996e-09
-3.86281e-08
-3.55904e-09
-3.92322e-08
-3.27473e-09
-3.98081e-08
-2.95529e-09
-4.03511e-08
-2.59906e-09
-4.08562e-08
-2.2045e-09
-4.13183e-08
-1.77024e-09
-4.17316e-08
-1.29509e-09
-4.20903e-08
-7.78132e-10
-4.23882e-08
-2.18765e-10
-4.26188e-08
3.83401e-10
-4.27747e-08
1.02876e-09
-4.28517e-08
1.71641e-09
-4.28396e-08
2.44538e-09
-4.27323e-08
3.21418e-09
-4.25228e-08
4.0207e-09
-4.2204e-08
4.86214e-09
-4.1769e-08
5.73512e-09
-4.12112e-08
6.63551e-09
-4.05243e-08
7.55846e-09
-3.97027e-08
8.49843e-09
-3.87413e-08
9.44916e-09
-3.76358e-08
1.04037e-08
-3.6383e-08
1.13546e-08
-3.49806e-08
1.22938e-08
-3.34277e-08
1.32127e-08
-3.17245e-08
1.41025e-08
-2.9873e-08
1.49542e-08
-2.78765e-08
1.57587e-08
-2.57402e-08
1.65071e-08
-2.34708e-08
1.71907e-08
-2.10767e-08
1.78014e-08
-1.85682e-08
1.83316e-08
-1.5957e-08
1.87749e-08
-1.32573e-08
1.91256e-08
-1.04868e-08
1.93786e-08
-7.65096e-09
1.95397e-08
-5.04451e-09
1.95789e-08
-1.6986e-09
1.98154e-08
-7.8656e-09
2.20398e-08
-3.63836e-08
2.46084e-08
-3.78258e-08
2.71082e-08
-3.47588e-08
2.93652e-08
-3.05224e-08
3.13016e-08
-2.56957e-08
3.28652e-08
-2.04513e-08
3.40225e-08
-1.49259e-08
3.47699e-08
-9.34717e-09
-4.43726e-09
-1.07811e-10
-1.30344e-08
-2.15725e-10
-1.30512e-08
-3.23763e-10
-1.3075e-08
-4.31991e-10
-1.31108e-08
-5.40476e-10
-1.31596e-08
-6.49286e-10
-1.32218e-08
-7.58486e-10
-1.32968e-08
-8.68136e-10
-1.33845e-08
-9.78294e-10
-1.3485e-08
-1.08902e-09
-1.35982e-08
-1.20036e-09
-1.37243e-08
-1.31236e-09
-1.38633e-08
-1.42508e-09
-1.40154e-08
-1.53856e-09
-1.41805e-08
-1.65283e-09
-1.43589e-08
-1.76792e-09
-1.45507e-08
-1.88386e-09
-1.47559e-08
-2.00067e-09
-1.49747e-08
-2.11837e-09
-1.52072e-08
-2.23695e-09
-1.54536e-08
-2.35642e-09
-1.57139e-08
-2.47675e-09
-1.59883e-08
-2.59792e-09
-1.62771e-08
-2.7199e-09
-1.65802e-08
-2.84263e-09
-1.68978e-08
-2.96604e-09
-1.72302e-08
-3.09006e-09
-1.75773e-08
-3.21458e-09
-1.79394e-08
-3.33948e-09
-1.83166e-08
-3.46463e-09
-1.8709e-08
-3.58987e-09
-1.91167e-08
-3.71499e-09
-1.95397e-08
-3.8398e-09
-1.99783e-08
-3.96403e-09
-2.04324e-08
-4.08743e-09
-2.09021e-08
-4.20966e-09
-2.13874e-08
-4.33039e-09
-2.18883e-08
-4.44921e-09
-2.24048e-08
-4.5657e-09
-2.29368e-08
-4.67937e-09
-2.34842e-08
-4.78968e-09
-2.40468e-08
-4.89606e-09
-2.46244e-08
-4.99784e-09
-2.52167e-08
-5.09432e-09
-2.58235e-08
-5.18472e-09
-2.64443e-08
-5.2682e-09
-2.70787e-08
-5.34384e-09
-2.7726e-08
-5.41064e-09
-2.83856e-08
-5.46752e-09
-2.90567e-08
-5.51333e-09
-2.97385e-08
-5.54682e-09
-3.04299e-08
-5.56665e-09
-3.11297e-08
-5.57139e-09
-3.18368e-08
-5.55954e-09
-3.25494e-08
-5.52947e-09
-3.32661e-08
-5.4795e-09
-3.39849e-08
-5.40783e-09
-3.47038e-08
-5.31261e-09
-3.54204e-08
-5.19189e-09
-3.61323e-08
-5.04367e-09
-3.68365e-08
-4.86587e-09
-3.75301e-08
-4.6564e-09
-3.82097e-08
-4.41313e-09
-3.88714e-08
-4.13392e-09
-3.95115e-08
-3.81667e-09
-4.01254e-08
-3.45932e-09
-4.07085e-08
-3.05989e-09
-4.12557e-08
-2.61653e-09
-4.17617e-08
-2.12756e-09
-4.22206e-08
-1.59151e-09
-4.26264e-08
-1.00719e-09
-4.29725e-08
-3.73783e-10
-4.32522e-08
3.0919e-10
-4.34577e-08
1.04262e-09
-4.35852e-08
1.82534e-09
-4.36224e-08
2.65649e-09
-4.35635e-08
3.53453e-09
-4.34009e-08
4.45714e-09
-4.31267e-08
5.42132e-09
-4.27332e-08
6.42322e-09
-4.22131e-08
7.4582e-09
-4.15593e-08
8.52078e-09
-4.07653e-08
9.6046e-09
-3.98252e-08
1.07025e-08
-3.87337e-08
1.18064e-08
-3.74869e-08
1.29075e-08
-3.60818e-08
1.39966e-08
-3.45167e-08
1.50635e-08
-3.27914e-08
1.60979e-08
-3.09074e-08
1.70891e-08
-2.88677e-08
1.80263e-08
-2.66775e-08
1.8899e-08
-2.43435e-08
1.96968e-08
-2.18745e-08
2.041e-08
-1.92814e-08
2.10297e-08
-1.65767e-08
2.15478e-08
-1.37755e-08
2.19579e-08
-1.08969e-08
2.22537e-08
-7.94682e-09
2.24421e-08
-5.23284e-09
2.24875e-08
-1.74399e-09
2.27633e-08
-8.1414e-09
2.54177e-08
-3.90378e-08
2.84959e-08
-4.09038e-08
3.14966e-08
-3.77595e-08
3.42079e-08
-3.32336e-08
3.6535e-08
-2.80226e-08
3.84145e-08
-2.23308e-08
3.98059e-08
-1.63174e-08
4.07054e-08
-1.02466e-08
-4.93689e-09
-1.20276e-10
-1.29141e-08
-2.40669e-10
-1.29308e-08
-3.61203e-10
-1.29544e-08
-4.8195e-10
-1.299e-08
-6.0299e-10
-1.30386e-08
-7.24398e-10
-1.31004e-08
-8.46247e-10
-1.31749e-08
-9.68606e-10
-1.32622e-08
-1.09154e-09
-1.3362e-08
-1.21512e-09
-1.34746e-08
-1.3394e-09
-1.36e-08
-1.46443e-09
-1.37383e-08
-1.59028e-09
-1.38895e-08
-1.71699e-09
-1.40538e-08
-1.8446e-09
-1.42313e-08
-1.97316e-09
-1.44221e-08
-2.10268e-09
-1.46264e-08
-2.23321e-09
-1.48442e-08
-2.36475e-09
-1.50757e-08
-2.49732e-09
-1.5321e-08
-2.6309e-09
-1.55803e-08
-2.76549e-09
-1.58538e-08
-2.90107e-09
-1.61415e-08
-3.03758e-09
-1.64437e-08
-3.17499e-09
-1.67604e-08
-3.31322e-09
-1.70919e-08
-3.45218e-09
-1.74384e-08
-3.59178e-09
-1.77998e-08
-3.73188e-09
-1.81765e-08
-3.87233e-09
-1.85685e-08
-4.01296e-09
-1.8976e-08
-4.15357e-09
-1.93991e-08
-4.29391e-09
-1.9838e-08
-4.43374e-09
-2.02926e-08
-4.57274e-09
-2.07631e-08
-4.71057e-09
-2.12496e-08
-4.84686e-09
-2.17521e-08
-4.98117e-09
-2.22705e-08
-5.11304e-09
-2.2805e-08
-5.24192e-09
-2.33553e-08
-5.36724e-09
-2.39215e-08
-5.48835e-09
-2.45033e-08
-5.60454e-09
-2.51006e-08
-5.71502e-09
-2.57131e-08
-5.81894e-09
-2.63404e-08
-5.91536e-09
-2.69823e-08
-6.00328e-09
-2.76381e-08
-6.08159e-09
-2.83073e-08
-6.14908e-09
-2.89893e-08
-6.20448e-09
-2.96831e-08
-6.2464e-09
-3.0388e-08
-6.27334e-09
-3.11029e-08
-6.28371e-09
-3.18264e-08
-6.27581e-09
-3.25574e-08
-6.24784e-09
-3.32941e-08
-6.19789e-09
-3.40349e-08
-6.12394e-09
-3.47778e-08
-6.02388e-09
-3.55205e-08
-5.89551e-09
-3.62607e-08
-5.73654e-09
-3.69955e-08
-5.54462e-09
-3.77221e-08
-5.31733e-09
-3.8437e-08
-5.05222e-09
-3.91366e-08
-4.74683e-09
-3.98169e-08
-4.39869e-09
-4.04736e-08
-4.00539e-09
-4.11018e-08
-3.56461e-09
-4.16966e-08
-3.07413e-09
-4.22522e-08
-2.53191e-09
-4.27629e-08
-1.93614e-09
-4.32222e-08
-1.28529e-09
-4.36234e-08
-5.78243e-10
-4.39593e-08
1.8557e-10
-4.42216e-08
1.0073e-09
-4.4407e-08
1.88601e-09
-4.45011e-08
2.82096e-09
-4.44985e-08
3.81048e-09
-4.43905e-08
4.85224e-09
-4.41685e-08
5.94295e-09
-4.3824e-08
7.07842e-09
-4.33486e-08
8.25351e-09
-4.27345e-08
9.46205e-09
-4.19739e-08
1.06969e-08
-4.106e-08
1.19499e-08
-3.99867e-08
1.32118e-08
-3.87489e-08
1.44727e-08
-3.73427e-08
1.57216e-08
-3.57656e-08
1.69469e-08
-3.40167e-08
1.81365e-08
-3.2097e-08
1.92779e-08
-3.00091e-08
2.03585e-08
-2.7758e-08
2.13657e-08
-2.53507e-08
2.22874e-08
-2.27962e-08
2.3112e-08
-2.0106e-08
2.38289e-08
-1.72936e-08
2.44287e-08
-1.43753e-08
2.49035e-08
-1.13717e-08
2.5246e-08
-8.28935e-09
2.54639e-08
-5.45071e-09
2.55159e-08
-1.79597e-09
2.58346e-08
-8.46005e-09
2.89759e-08
-4.2179e-08
3.26353e-08
-4.45631e-08
3.6209e-08
-4.13331e-08
3.94404e-08
-3.64649e-08
4.2215e-08
-3.07972e-08
4.44565e-08
-2.45723e-08
4.61166e-08
-1.79774e-08
4.71907e-08
-1.13208e-08
-5.53673e-09
-1.32665e-10
-1.27815e-08
-2.65462e-10
-1.2798e-08
-3.98417e-10
-1.28215e-08
-5.31612e-10
-1.28568e-08
-6.65134e-10
-1.29051e-08
-7.99068e-10
-1.29664e-08
-9.33498e-10
-1.30405e-08
-1.0685e-09
-1.31272e-08
-1.20415e-09
-1.32264e-08
-1.34052e-09
-1.33383e-08
-1.47768e-09
-1.34629e-08
-1.61569e-09
-1.36003e-08
-1.75462e-09
-1.37506e-08
-1.89452e-09
-1.39139e-08
-2.03544e-09
-1.40904e-08
-2.17742e-09
-1.42802e-08
-2.32051e-09
-1.44833e-08
-2.46474e-09
-1.47e-08
-2.61012e-09
-1.49303e-08
-2.75667e-09
-1.51745e-08
-2.90438e-09
-1.54326e-08
-3.05326e-09
-1.57049e-08
-3.20327e-09
-1.59915e-08
-3.35438e-09
-1.62926e-08
-3.50653e-09
-1.66083e-08
-3.65966e-09
-1.69388e-08
-3.81368e-09
-1.72844e-08
-3.96848e-09
-1.76451e-08
-4.12393e-09
-1.80211e-08
-4.27986e-09
-1.84126e-08
-4.43609e-09
-1.88198e-08
-4.5924e-09
-1.92428e-08
-4.74856e-09
-1.96818e-08
-4.90428e-09
-2.01369e-08
-5.05922e-09
-2.06082e-08
-5.21304e-09
-2.10958e-08
-5.36532e-09
-2.15998e-08
-5.5156e-09
-2.21203e-08
-5.66337e-09
-2.26572e-08
-5.80806e-09
-2.32107e-08
-5.94903e-09
-2.37805e-08
-6.08559e-09
-2.43668e-08
-6.21696e-09
-2.49693e-08
-6.34229e-09
-2.55878e-08
-6.46067e-09
-2.62221e-08
-6.57106e-09
-2.68719e-08
-6.67236e-09
-2.75368e-08