/*--------------------------------*- C++ -*----------------------------------*\
| =========                 |                                                 |
| \\      /  F ield         | OpenFOAM: The Open Source CFD Toolbox           |
|  \\    /   O peration     | Version:  v2106                                 |
|   \\  /    A nd           | Website:  www.openfoam.com                      |
|    \\/     M anipulation  |                                                 |
\*---------------------------------------------------------------------------*/
FoamFile
{
    version     2.0;
    format      ascii;
    arch        "LSB;label=32;scalar=64";
    class       volVectorField;
    location    "0.2";
    object      U;
}
// * * * * * * * * * * * * * * * * * * * * * * * * * * * * * * * * * * * * * //

dimensions      [0 1 -1 0 0 0 0];

internalField   nonuniform List<vector> 
29678
(
(-0.000112914 6.57644e-28 -2.55419e-08)
(-0.000113063 -4.1029e-27 -8.34551e-08)
(-0.000113268 -1.6142e-24 -1.45026e-07)
(-0.000113576 -8.02905e-23 -2.08076e-07)
(-0.000113993 3.99117e-22 -2.70205e-07)
(-0.000114522 4.32812e-22 -3.31928e-07)
(-0.000115162 4.14362e-22 -3.93278e-07)
(-0.00011591 4.22945e-22 -4.54579e-07)
(-0.000116766 -7.36072e-22 -5.1601e-07)
(-0.000117732 3.54599e-22 -5.7767e-07)
(-0.000118806 -8.12529e-22 -6.39607e-07)
(-0.00011999 3.62149e-22 -7.01853e-07)
(-0.000121285 -8.19865e-22 -7.64428e-07)
(-0.00012269 4.38219e-22 -8.27391e-07)
(-0.000124208 -8.27322e-22 -8.90875e-07)
(-0.000125837 4.1744e-22 -9.54923e-07)
(-0.00012758 -9.0508e-22 -1.01943e-06)
(-0.000129436 -9.76809e-22 -1.08428e-06)
(-0.000131406 4.10592e-22 -1.14937e-06)
(-0.000133492 -9.83212e-22 -1.2148e-06)
(-0.000135694 -1.0565e-21 -1.28067e-06)
(-0.000138013 -1.00066e-21 -1.34694e-06)
(-0.00014045 -2.99542e-23 -1.41358e-06)
(-0.000143005 -7.52255e-24 -1.48063e-06)
(-0.000145679 -5.56959e-22 -1.54819e-06)
(-0.000148473 -5.72716e-23 -1.61622e-06)
(-0.000151386 -5.04702e-22 -1.68452e-06)
(-0.000154419 5.28542e-22 -1.75291e-06)
(-0.000157572 -1.17177e-21 -1.82128e-06)
(-0.000160846 -1.13904e-21 -1.88961e-06)
(-0.000164242 -1.0965e-21 -1.9579e-06)
(-0.000167757 -2.966e-23 -2.02613e-06)
(-0.000171393 1.04898e-22 -2.09414e-06)
(-0.000175147 6.79042e-22 -2.16171e-06)
(-0.000179019 6.08405e-22 -2.22853e-06)
(-0.000183009 6.27684e-22 -2.29444e-06)
(-0.000187114 5.98006e-22 -2.35935e-06)
(-0.000191333 6.03533e-22 -2.42307e-06)
(-0.000195663 7.07223e-22 -2.48534e-06)
(-0.000200102 7.32962e-22 -2.54589e-06)
(-0.000204645 7.88349e-22 -2.60439e-06)
(-0.000209289 7.99825e-22 -2.66052e-06)
(-0.000214029 7.1558e-22 -2.7139e-06)
(-0.000218861 8.86414e-22 -2.76413e-06)
(-0.000223778 7.62227e-22 -2.81076e-06)
(-0.000228774 -7.32474e-22 -2.8534e-06)
(-0.000233841 7.57018e-22 -2.89167e-06)
(-0.00023897 7.83283e-22 -2.92494e-06)
(-0.000244151 8.30002e-22 -2.95244e-06)
(-0.000249374 8.29182e-22 -2.97346e-06)
(-0.000254628 9.52917e-22 -2.98744e-06)
(-0.0002599 1.01627e-21 -2.99374e-06)
(-0.000265174 1.08125e-21 -2.99158e-06)
(-0.000270436 1.01208e-21 -2.98019e-06)
(-0.000275667 4.8591e-23 -2.95876e-06)
(-0.00028085 1.04831e-21 -2.92632e-06)
(-0.000285964 1.13338e-21 -2.88186e-06)
(-0.000290987 9.16482e-22 -2.82447e-06)
(-0.000295895 9.52952e-22 -2.75319e-06)
(-0.000300664 1.1982e-21 -2.66715e-06)
(-0.000305264 1.26223e-21 -2.56542e-06)
(-0.000309668 1.20475e-21 -2.44682e-06)
(-0.000313843 1.10518e-21 -2.31013e-06)
(-0.000317758 1.18723e-21 -2.15423e-06)
(-0.000321378 1.08172e-21 -1.97822e-06)
(-0.000324666 1.31228e-21 -1.78123e-06)
(-0.000327585 7.44682e-23 -1.56238e-06)
(-0.000330096 1.22581e-21 -1.32088e-06)
(-0.000332156 -2.46465e-21 -1.05597e-06)
(-0.000333725 9.77611e-22 -7.67092e-07)
(-0.000334759 -1.10164e-21 -4.53649e-07)
(-0.000335215 1.06146e-21 -1.16625e-07)
(-0.000335054 -1.06298e-21 2.46491e-07)
(-0.000334223 1.25129e-21 6.35629e-07)
(-0.000332683 -1.07488e-21 1.04781e-06)
(-0.000330392 -1.22526e-21 1.48334e-06)
(-0.000327309 1.05744e-21 1.94107e-06)
(-0.000323396 -1.22518e-21 2.41952e-06)
(-0.000318616 1.08079e-21 2.91691e-06)
(-0.000312937 -1.93346e-21 3.43126e-06)
(-0.000306331 8.56589e-22 3.96026e-06)
(-0.000298772 -1.05185e-21 4.50114e-06)
(-0.000290243 8.90545e-22 5.05076e-06)
(-0.00028073 -1.14118e-21 5.60572e-06)
(-0.000270227 -9.45569e-22 6.1623e-06)
(-0.000258734 7.78178e-22 6.71647e-06)
(-0.00024626 -8.32278e-22 7.26385e-06)
(-0.000232822 8.15184e-22 7.79989e-06)
(-0.000218444 -8.00048e-22 8.31991e-06)
(-0.000203159 6.08958e-22 8.81926e-06)
(-0.00018701 -1.33005e-21 9.29342e-06)
(-0.000170045 -8.25358e-25 9.73805e-06)
(-0.000152324 3.71101e-22 1.01492e-05)
(-0.000133914 -8.67908e-22 1.05236e-05)
(-0.000114889 3.71265e-22 1.08589e-05)
(-9.53363e-05 -6.63927e-22 1.11552e-05)
(-7.53682e-05 2.36838e-22 1.14507e-05)
(-5.50523e-05 -1.56243e-22 1.12716e-05)
(-3.64694e-05 1.46888e-22 1.30614e-05)
(-1.28006e-05 -5.50223e-23 8.98126e-06)
(-6.2911e-05 -8.02531e-23 1.08584e-05)
(-0.000229695 9.13621e-22 -9.16395e-06)
(-0.000226739 -9.02264e-22 1.08886e-05)
(-0.000205622 -1.3911e-22 1.19443e-05)
(-0.00017889 -1.42039e-21 1.61952e-05)
(-0.000149723 4.76068e-22 1.83313e-05)
(-0.00011858 -3.53718e-22 2.00712e-05)
(-8.60967e-05 6.30612e-22 2.12781e-05)
(-5.32435e-05 -2.7217e-22 2.20674e-05)
(-2.3502e-05 -3.60791e-23 2.26104e-05)
(-0.000112781 1.62698e-28 -7.93136e-08)
(-0.000112927 1.17702e-25 -2.39663e-07)
(-0.000113134 6.67473e-24 -3.99884e-07)
(-0.000113442 2.85046e-22 -5.59009e-07)
(-0.00011386 1.39072e-23 -7.19779e-07)
(-0.00011439 1.61079e-24 -8.81554e-07)
(-0.00011503 8.46829e-24 -1.04349e-06)
(-0.000115778 3.93322e-22 -1.2058e-06)
(-0.000116634 -3.45856e-22 -1.36869e-06)
(-0.000117598 -2.12425e-23 -1.53227e-06)
(-0.000118672 -4.19717e-22 -1.69663e-06)
(-0.000119856 3.64224e-22 -1.86184e-06)
(-0.000121149 -3.76776e-22 -2.02797e-06)
(-0.000122554 -2.19103e-23 -2.19512e-06)
(-0.00012407 -3.92172e-22 -2.36342e-06)
(-0.000125699 4.15576e-22 -2.53294e-06)
(-0.00012744 -4.66494e-22 -2.70362e-06)
(-0.000129295 -4.31569e-22 -2.87535e-06)
(-0.000131265 8.2052e-22 -3.04808e-06)
(-0.00013335 -4.56738e-22 -3.22186e-06)
(-0.000135551 -5.04757e-22 -3.39676e-06)
(-0.00013787 -5.02042e-22 -3.57274e-06)
(-0.000140306 -2.51608e-24 -3.74976e-06)
(-0.00014286 -4.76711e-22 -3.92779e-06)
(-0.000145533 -4.26713e-23 -4.10688e-06)
(-0.000148326 -9.82927e-22 -4.28689e-06)
(-0.000151239 4.92817e-22 -4.46757e-06)
(-0.000154271 1.06562e-21 -4.64866e-06)
(-0.000157425 -5.57506e-22 -4.82993e-06)
(-0.000160699 -5.82069e-22 -5.0112e-06)
(-0.000164094 -5.06919e-22 -5.19231e-06)
(-0.00016761 -7.67637e-24 -5.37303e-06)
(-0.000171247 -1.07816e-21 -5.55302e-06)
(-0.000175002 -2.94958e-23 -5.7318e-06)
(-0.000178876 5.41697e-22 -5.90883e-06)
(-0.000182868 1.05392e-23 -6.08365e-06)
(-0.000186976 -1.57455e-22 -6.25579e-06)
(-0.000191197 2.13881e-23 -6.4247e-06)
(-0.000195531 -2.00939e-23 -6.58972e-06)
(-0.000199973 -1.71709e-23 -6.7501e-06)
(-0.000204521 2.37728e-23 -6.90503e-06)
(-0.000209171 7.15673e-22 -7.05363e-06)
(-0.000213918 2.20898e-23 -7.19491e-06)
(-0.000218757 7.17759e-23 -7.32781e-06)
(-0.000223682 -3.99069e-23 -7.45119e-06)
(-0.000228687 -1.53197e-21 -7.56385e-06)
(-0.000233764 -2.13592e-23 -7.66454e-06)
(-0.000238904 2.71343e-23 -7.75174e-06)
(-0.000244099 7.42626e-22 -7.82375e-06)
(-0.000249336 2.11206e-23 -7.8788e-06)
(-0.000254606 -7.20769e-24 -7.91518e-06)
(-0.000259895 9.403e-22 -7.93106e-06)
(-0.000265188 9.93048e-22 -7.92439e-06)
(-0.000270471 -9.10684e-22 -7.89308e-06)
(-0.000275725 -2.04269e-23 -7.83489e-06)
(-0.000280933 9.63253e-22 -7.74737e-06)
(-0.000286073 -9.32753e-22 -7.628e-06)
(-0.000291125 -9.55058e-23 -7.47425e-06)
(-0.000296065 2.83635e-23 -7.28355e-06)
(-0.000300866 1.08105e-21 -7.05332e-06)
(-0.000305502 2.82908e-23 -6.78087e-06)
(-0.000309943 2.25693e-22 -6.46332e-06)
(-0.000314158 2.26963e-23 -6.09777e-06)
(-0.000318115 -1.6873e-23 -5.68142e-06)
(-0.00032178 -3.96036e-23 -5.21168e-06)
(-0.000325114 1.2166e-21 -4.68609e-06)
(-0.000328081 3.92224e-23 -4.10234e-06)
(-0.000330641 -6.85895e-23 -3.45826e-06)
(-0.000332753 -2.16161e-21 -2.75197e-06)
(-0.000334374 -5.27527e-23 -1.98198e-06)
(-0.000335461 -8.14582e-24 -1.14696e-06)
(-0.000335971 -5.48673e-23 -2.4902e-07)
(-0.000335863 -2.05588e-21 7.1819e-07)
(-0.000335084 -5.21077e-23 1.7542e-06)
(-0.000333596 -5.72169e-23 2.85169e-06)
(-0.000331354 -2.26848e-21 4.01168e-06)
(-0.000328318 -4.13546e-23 5.23131e-06)
(-0.000324448 -8.41012e-24 6.50695e-06)
(-0.000319707 -4.32219e-23 7.83406e-06)
(-0.000314063 -2.29759e-21 9.20728e-06)
(-0.000307485 -5.00145e-23 1.06202e-05)
(-0.000299949 -8.1005e-24 1.20655e-05)
(-0.000291435 -8.51542e-23 1.35347e-05)
(-0.00028193 -1.91895e-21 1.50185e-05)
(-0.000271426 -1.13419e-22 1.65067e-05)
(-0.000259923 -1.01586e-22 1.79884e-05)
(-0.00024743 -1.61325e-21 1.94517e-05)
(-0.000233962 2.47413e-23 2.08843e-05)
(-0.000219544 3.99148e-24 2.22736e-05)
(-0.000204209 -1.27021e-23 2.36066e-05)
(-0.000187999 -1.28932e-21 2.48706e-05)
(-0.000170966 -2.22451e-22 2.60531e-05)
(-0.000153167 5.80769e-23 2.71422e-05)
(-0.000134673 -8.96178e-22 2.81269e-05)
(-0.000115559 -4.14369e-23 2.89982e-05)
(-9.59145e-05 -6.93887e-22 2.97502e-05)
(-7.5858e-05 -1.16777e-22 3.04833e-05)
(-5.54346e-05 -3.74891e-22 2.99089e-05)
(-3.67354e-05 5.53678e-23 3.46962e-05)
(-1.28766e-05 5.65054e-23 2.35152e-05)
(-5.77208e-05 -5.0125e-21 3.16999e-05)
(-0.000232759 -2.29362e-23 4.20465e-05)
(-0.000236736 1.70966e-22 3.37383e-05)
(-0.000211368 -1.85162e-23 3.94958e-05)
(-0.000183331 -1.52793e-21 4.30415e-05)
(-0.000153036 -8.48169e-24 4.61844e-05)
(-0.000121063 1.63287e-23 4.88887e-05)
(-8.78478e-05 1.88881e-22 5.09343e-05)
(-5.43282e-05 8.27229e-24 5.23124e-05)
(-2.40387e-05 2.09914e-22 5.33602e-05)
(-0.000112568 -3.25443e-29 -1.32398e-07)
(-0.000112715 -2.52943e-27 -3.99455e-07)
(-0.000112922 -5.68799e-26 -6.66261e-07)
(-0.00011323 -1.95399e-24 -9.31004e-07)
(-0.000113647 -3.7687e-22 -1.198e-06)
(-0.000114177 -4.09202e-22 -1.46658e-06)
(-0.000114816 -3.90873e-22 -1.73563e-06)
(-0.000115563 -3.3763e-22 -2.00545e-06)
(-0.000116418 7.56022e-22 -2.27631e-06)
(-0.000117382 -3.34126e-22 -2.54837e-06)
(-0.000118454 7.18749e-22 -2.82177e-06)
(-0.000119637 -3.50406e-22 -3.09661e-06)
(-0.000120929 7.69403e-22 -3.37301e-06)
(-0.000122332 -4.18732e-22 -3.6511e-06)
(-0.000123847 8.26258e-22 -3.93102e-06)
(-0.000125474 -3.22009e-22 -4.21285e-06)
(-0.000127214 7.91717e-22 -4.49657e-06)
(-0.000129068 9.01353e-22 -4.78215e-06)
(-0.000131036 -3.70354e-22 -5.06954e-06)
(-0.00013312 8.78802e-22 -5.35878e-06)
(-0.000135319 9.0658e-22 -5.64989e-06)
(-0.000137636 8.72084e-22 -5.94284e-06)
(-0.000140071 2.60302e-23 -6.23754e-06)
(-0.000142624 4.0712e-23 -6.53393e-06)
(-0.000145296 5.02967e-22 -6.83194e-06)
(-0.000148088 -2.78768e-24 -7.13137e-06)
(-0.000150999 4.75657e-22 -7.43193e-06)
(-0.000154032 -5.56241e-22 -7.73328e-06)
(-0.000157185 1.06005e-21 -8.03507e-06)
(-0.000160459 1.0425e-21 -8.33696e-06)
(-0.000163855 1.09718e-21 -8.6386e-06)
(-0.000167372 -2.21436e-25 -8.93954e-06)
(-0.000171009 -6.65929e-23 -9.2392e-06)
(-0.000174767 -6.3017e-22 -9.53691e-06)
(-0.000178644 -6.60211e-22 -9.83189e-06)
(-0.000182638 -6.27218e-22 -1.01233e-05)
(-0.00018675 -5.79999e-22 -1.04104e-05)
(-0.000190976 -5.23694e-22 -1.06921e-05)
(-0.000195316 -7.17721e-22 -1.09674e-05)
(-0.000199765 -6.6206e-22 -1.1235e-05)
(-0.00020432 -6.98725e-22 -1.14937e-05)
(-0.000208979 -7.73606e-22 -1.17418e-05)
(-0.000213736 -7.12502e-22 -1.1978e-05)
(-0.000218587 -7.24657e-22 -1.22002e-05)
(-0.000223526 -6.98224e-22 -1.24067e-05)
(-0.000228546 7.14289e-22 -1.25955e-05)
(-0.00023364 -7.58016e-22 -1.27643e-05)
(-0.000238799 -6.90932e-22 -1.29107e-05)
(-0.000244014 -8.23425e-22 -1.3032e-05)
(-0.000249276 -8.21797e-22 -1.31253e-05)
(-0.000254571 -8.54413e-22 -1.31877e-05)
(-0.000259889 -8.92365e-22 -1.32161e-05)
(-0.000265213 -8.6963e-22 -1.32071e-05)
(-0.00027053 -9.61682e-22 -1.31571e-05)
(-0.000275821 -1.17941e-23 -1.30625e-05)
(-0.00028107 -1.07491e-21 -1.29191e-05)
(-0.000286254 -1.14681e-21 -1.27229e-05)
(-0.000291353 -9.84493e-22 -1.24695e-05)
(-0.000296343 -8.56296e-22 -1.21548e-05)
(-0.000301198 -1.23793e-21 -1.17741e-05)
(-0.000305892 -1.22895e-21 -1.1323e-05)
(-0.000310395 -1.07859e-21 -1.07968e-05)
(-0.000314676 -1.00084e-21 -1.01907e-05)
(-0.000318702 -1.15201e-21 -9.50014e-06)
(-0.000322439 -1.30897e-21 -8.72065e-06)
(-0.000325849 -8.47616e-22 -7.84805e-06)
(-0.000328895 -5.54646e-23 -6.8784e-06)
(-0.000331536 -1.18323e-21 -5.80805e-06)
(-0.000333731 2.19389e-21 -4.63382e-06)
(-0.000335437 -9.14414e-22 -3.35322e-06)
(-0.000336611 1.04108e-21 -1.9639e-06)
(-0.000337208 -9.98373e-22 -4.6997e-07)
(-0.000337189 1.13783e-21 1.14013e-06)
(-0.000336496 -1.18832e-21 2.86576e-06)
(-0.000335092 1.02701e-21 4.69395e-06)
(-0.000332931 1.15816e-21 6.62706e-06)
(-0.000329972 -1.01393e-21 8.66046e-06)
(-0.000326174 1.16806e-21 1.07883e-05)
(-0.000321499 -9.89836e-22 1.30033e-05)
(-0.000315912 1.71945e-21 1.52962e-05)
(-0.000309383 -8.38961e-22 1.76566e-05)
(-0.000301885 1.00109e-21 2.0072e-05)
(-0.000293397 -7.99865e-22 2.25283e-05)
(-0.000283904 8.303e-22 2.501e-05)
(-0.000273399 8.32347e-22 2.75e-05)
(-0.00026188 -6.63016e-22 2.99796e-05)
(-0.000249355 6.86778e-22 3.24292e-05)
(-0.000235838 -8.58359e-22 3.48281e-05)
(-0.000221354 7.59355e-22 3.71548e-05)
(-0.000205936 -4.82894e-22 3.93876e-05)
(-0.000189626 1.21697e-21 4.15047e-05)
(-0.000172475 -9.94269e-23 4.34847e-05)
(-0.000154544 -2.18494e-22 4.53071e-05)
(-0.000135903 8.80586e-22 4.69523e-05)
(-0.00011663 -3.64965e-22 4.84033e-05)
(-9.68168e-05 5.79145e-22 4.96458e-05)
(-7.65843e-05 -1.99428e-22 5.08444e-05)
(-5.5967e-05 1.69229e-22 4.98273e-05)
(-3.70978e-05 -2.84602e-22 5.77867e-05)
(-1.29048e-05 5.19429e-23 3.8908e-05)
(-5.77708e-05 4.44835e-23 5.25743e-05)
(-0.000236388 -9.96684e-22 6.75185e-05)
(-0.000239183 8.6126e-22 5.70075e-05)
(-0.000215495 3.31836e-22 6.72358e-05)
(-0.000187346 1.3465e-21 7.22817e-05)
(-0.000156572 -6.53338e-22 7.71154e-05)
(-0.000123933 4.23407e-22 8.12559e-05)
(-8.99699e-05 -3.98271e-22 8.4453e-05)
(-5.56912e-05 1.89839e-22 8.66248e-05)
(-2.47786e-05 -1.78918e-22 8.83053e-05)
(-0.00011225 -6.41519e-28 -1.85427e-07)
(-0.000112396 -2.35116e-25 -5.59293e-07)
(-0.000112602 -1.48446e-23 -9.32774e-07)
(-0.00011291 -3.36791e-22 -1.30325e-06)
(-0.000113326 3.36239e-22 -1.6767e-06)
(-0.000113855 3.98656e-22 -2.05234e-06)
(-0.000114493 3.72647e-22 -2.4287e-06)
(-0.000115239 8.00893e-25 -2.80619e-06)
(-0.000116093 -3.80181e-22 -3.18519e-06)
(-0.000117055 4.08721e-22 -3.5659e-06)
(-0.000118126 -3.62545e-22 -3.94851e-06)
(-0.000119306 -2.84637e-23 -4.33317e-06)
(-0.000120596 -3.54859e-22 -4.72004e-06)
(-0.000121998 3.45403e-22 -5.1093e-06)
(-0.00012351 -4.13091e-22 -5.50107e-06)
(-0.000125135 -2.90965e-23 -5.89546e-06)
(-0.000126873 -3.74982e-22 -6.29252e-06)
(-0.000128724 -4.33539e-22 -6.69223e-06)
(-0.00013069 -4.44672e-22 -7.0946e-06)
(-0.000132772 -3.46417e-22 -7.49964e-06)
(-0.000134969 -4.50702e-22 -7.90735e-06)
(-0.000137284 -4.22242e-22 -8.31767e-06)
(-0.000139716 3.03625e-24 -8.7305e-06)
(-0.000142267 4.47686e-22 -9.14572e-06)
(-0.000144938 -4.47607e-22 -9.56318e-06)
(-0.000147728 8.46318e-22 -9.98261e-06)
(-0.000150638 -1.08361e-21 -1.04037e-05)
(-0.00015367 -5.11849e-22 -1.08259e-05)
(-0.000156823 -4.04868e-22 -1.1249e-05)
(-0.000160097 -5.22528e-22 -1.16722e-05)
(-0.000163493 -6.23842e-22 -1.20953e-05)
(-0.000167011 1.88945e-23 -1.25173e-05)
(-0.000170651 1.16634e-21 -1.29377e-05)
(-0.000174411 5.85695e-22 -1.33554e-05)
(-0.000178291 1.40662e-23 -1.37694e-05)
(-0.000182291 6.10975e-22 -1.41787e-05)
(-0.000186408 7.32184e-22 -1.45821e-05)
(-0.000190642 7.02048e-22 -1.4978e-05)
(-0.000194989 5.98505e-22 -1.53652e-05)
(-0.000199448 7.10872e-22 -1.57418e-05)
(-0.000204015 7.35404e-22 -1.61059e-05)
(-0.000208687 1.98767e-23 -1.64557e-05)
(-0.00021346 7.12376e-22 -1.67887e-05)
(-0.000218328 7.8374e-22 -1.71026e-05)
(-0.000223287 8.99949e-22 -1.73947e-05)
(-0.00022833 7.91117e-22 -1.76621e-05)
(-0.000233449 7.11186e-22 -1.79018e-05)
(-0.000238636 7.7278e-22 -1.81103e-05)
(-0.000243884 1.63111e-23 -1.82839e-05)
(-0.00024918 7.39131e-22 -1.84187e-05)
(-0.000254514 8.36133e-22 -1.85106e-05)
(-0.000259874 -2.41004e-24 -1.85551e-05)
(-0.000265246 7.19836e-23 -1.85474e-05)
(-0.000270614 1.85559e-21 -1.84827e-05)
(-0.000275961 -6.7369e-24 -1.83556e-05)
(-0.00028127 2.55342e-23 -1.81606e-05)
(-0.00028652 1.92799e-21 -1.78918e-05)
(-0.00029169 9.60637e-22 -1.75434e-05)
(-0.000296757 1.01815e-21 -1.7109e-05)
(-0.000301694 2.69583e-23 -1.65824e-05)
(-0.000306475 1.17721e-21 -1.59572e-05)
(-0.000311071 9.13738e-22 -1.52266e-05)
(-0.000315451 1.00568e-21 -1.43842e-05)
(-0.000319581 1.18382e-21 -1.34235e-05)
(-0.000323426 1.00514e-21 -1.2338e-05)
(-0.000326951 3.34631e-23 -1.11218e-05)
(-0.000330116 6.78413e-23 -9.76921e-06)
(-0.00033288 1.134e-21 -8.27498e-06)
(-0.000335202 6.97154e-24 -6.63453e-06)
(-0.000337038 1.10541e-21 -4.84417e-06)
(-0.000338344 -1.17214e-21 -2.90024e-06)
(-0.000339072 1.00689e-21 -8.10104e-07)
(-0.000339187 1.11128e-21 1.44484e-06)
(-0.000338626 1.23435e-21 3.86433e-06)
(-0.00033735 -1.12004e-21 6.42798e-06)
(-0.000335313 1.12907e-21 9.14052e-06)
(-0.000332473 1.25256e-21 1.19956e-05)
(-0.000328785 -1.08351e-21 1.49852e-05)
(-0.00032421 1.22143e-21 1.80991e-05)
(-0.000318712 2.54603e-22 2.13246e-05)
(-0.000312257 1.18354e-21 2.4647e-05)
(-0.000304818 -9.98372e-22 2.80487e-05)
(-0.000296371 8.60219e-22 3.15101e-05)
(-0.0002869 9.87898e-22 3.50092e-05)
(-0.000276394 -7.71685e-22 3.85216e-05)
(-0.000264852 7.07544e-22 4.20213e-05)
(-0.000252279 8.54234e-22 4.54803e-05)
(-0.000238688 8.62847e-22 4.88691e-05)
(-0.000224105 -7.41995e-22 5.21574e-05)
(-0.000208561 4.73693e-22 5.5314e-05)
(-0.000192098 1.62926e-22 5.83079e-05)
(-0.00017477 1.79273e-22 6.11084e-05)
(-0.000156637 2.94941e-22 6.36858e-05)
(-0.00013777 -5.26484e-23 6.60117e-05)
(-0.000118251 3.82926e-22 6.8061e-05)
(-9.81739e-05 1.63693e-23 6.9811e-05)
(-7.76595e-05 2.27827e-22 7.14946e-05)
(-5.67395e-05 2.25662e-22 7.0043e-05)
(-3.7579e-05 3.74025e-22 8.12365e-05)
(-1.30418e-05 -4.81355e-23 5.4657e-05)
(-5.88497e-05 -6.58916e-23 7.3893e-05)
(-0.000242792 1.09343e-21 9.37066e-05)
(-0.000245976 -9.49735e-22 8.0435e-05)
(-0.000222356 -4.47114e-22 9.52036e-05)
(-0.00019361 -9.28913e-23 0.000102372)
(-0.00016199 8.99308e-22 0.00010922)
(-0.000128316 1.79275e-23 0.000115038)
(-9.32133e-05 -1.35266e-22 0.000119546)
(-5.77791e-05 -2.04164e-22 0.000122612)
(-2.59148e-05 4.09034e-22 0.000124993)
(-0.000111825 -2.77743e-28 -2.3833e-07)
(-0.00011197 -9.11828e-26 -7.18767e-07)
(-0.000112177 -4.78545e-24 -1.19864e-06)
(-0.000112483 3.46175e-23 -1.67462e-06)
(-0.000112899 2.59482e-23 -2.15437e-06)
(-0.000113426 1.58817e-23 -2.63692e-06)
(-0.000114062 2.18505e-24 -3.12041e-06)
(-0.000114807 -1.70621e-23 -3.6054e-06)
(-0.000115659 -1.03048e-23 -4.09235e-06)
(-0.000116619 3.71798e-24 -4.58153e-06)
(-0.000117687 2.98306e-24 -5.07318e-06)
(-0.000118865 5.37578e-24 -5.56751e-06)
(-0.000120153 8.56477e-23 -6.06472e-06)
(-0.000121552 6.61478e-24 -6.56501e-06)
(-0.000123061 -9.05699e-23 -7.06854e-06)
(-0.000124683 -5.97075e-23 -7.57544e-06)
(-0.000126418 6.79384e-25 -8.08579e-06)
(-0.000128266 2.76742e-24 -8.59963e-06)
(-0.000130229 -3.70165e-23 -9.11697e-06)
(-0.000132307 3.64185e-23 -9.63784e-06)
(-0.000134502 5.14703e-23 -1.01622e-05)
(-0.000136813 -5.11086e-24 -1.069e-05)
(-0.000139243 7.56483e-23 -1.12211e-05)
(-0.000141791 -6.98626e-23 -1.17554e-05)
(-0.000144459 -7.76388e-24 -1.22925e-05)
(-0.000147247 -3.86564e-23 -1.28323e-05)
(-0.000150156 -9.22801e-23 -1.33743e-05)
(-0.000153186 5.76084e-23 -1.39179e-05)
(-0.000156339 -2.0677e-23 -1.44627e-05)
(-0.000159613 3.5203e-23 -1.50079e-05)
(-0.00016301 9.90838e-24 -1.5553e-05)
(-0.000166529 1.08377e-22 -1.60969e-05)
(-0.000170171 7.15576e-23 -1.66389e-05)
(-0.000173935 -3.98012e-23 -1.71776e-05)
(-0.00017782 5.89776e-23 -1.77119e-05)
(-0.000181825 1.71985e-23 -1.82403e-05)
(-0.00018595 -1.9163e-23 -1.87612e-05)
(-0.000190193 6.38633e-23 -1.9273e-05)
(-0.000194551 -5.59961e-23 -1.97737e-05)
(-0.000199023 1.24513e-22 -2.02612e-05)
(-0.000203605 2.28846e-23 -2.07329e-05)
(-0.000208295 5.00236e-23 -2.11865e-05)
(-0.000213088 2.81508e-23 -2.16189e-05)
(-0.00021798 1.68403e-22 -2.20271e-05)
(-0.000222965 2.93611e-23 -2.24077e-05)
(-0.000228037 -2.29222e-23 -2.27569e-05)
(-0.00023319 1.35992e-22 -2.30709e-05)
(-0.000238415 2.2677e-23 -2.33452e-05)
(-0.000243704 -6.06102e-23 -2.35751e-05)
(-0.000249047 2.21389e-23 -2.37557e-05)
(-0.000254433 -1.17254e-22 -2.38815e-05)
(-0.000259849 9.09768e-24 -2.39469e-05)
(-0.000265283 -7.35918e-23 -2.39457e-05)
(-0.000270719 4.39574e-23 -2.38716e-05)
(-0.000276141 -1.13977e-22 -2.37177e-05)
(-0.00028153 2.78179e-22 -2.34769e-05)
(-0.000286868 5.74581e-23 -2.31417e-05)
(-0.000292132 -5.99015e-23 -2.27043e-05)
(-0.0002973 2.92395e-23 -2.21568e-05)
(-0.000302347 2.67198e-22 -2.14909e-05)
(-0.000307244 2.88753e-23 -2.06981e-05)
(-0.000311964 -2.14205e-23 -1.97699e-05)
(-0.000316476 5.26449e-23 -1.86978e-05)
(-0.000320745 -4.00978e-23 -1.74733e-05)
(-0.000324737 1.45433e-22 -1.6088e-05)
(-0.000328415 -3.07865e-22 -1.45341e-05)
(-0.000331739 3.7727e-23 -1.28039e-05)
(-0.000334668 6.91783e-24 -1.08905e-05)
(-0.00033716 -1.68782e-23 -8.78777e-06)
(-0.000339171 4.10335e-23 -6.4906e-06)
(-0.000340654 -3.30593e-23 -3.99371e-06)
(-0.000341562 4.24374e-23 -1.30864e-06)
(-0.000341853 2.15348e-22 1.59155e-06)
(-0.00034147 5.03895e-23 4.7077e-06)
(-0.000340369 -1.32455e-23 8.0109e-06)
(-0.000338501 -1.61576e-22 1.15089e-05)
(-0.000335821 9.17126e-23 1.51938e-05)
(-0.000332283 -4.15155e-23 1.90555e-05)
(-0.000327845 4.25786e-23 2.30809e-05)
(-0.000322468 -5.32283e-23 2.7254e-05)
(-0.000316116 5.17445e-23 3.15555e-05)
(-0.000308759 -6.00323e-23 3.59633e-05)
(-0.000300369 -8.11097e-23 4.04517e-05)
(-0.000290929 4.88687e-22 4.49922e-05)
(-0.000280426 -2.12418e-22 4.95533e-05)
(-0.000268854 -1.88526e-22 5.41009e-05)
(-0.000256219 1.33617e-22 5.85985e-05)
(-0.000242532 2.37608e-22 6.30077e-05)
(-0.000227816 -7.37643e-23 6.72884e-05)
(-0.000212103 8.22639e-23 7.13999e-05)
(-0.000195436 2.81748e-22 7.53013e-05)
(-0.000177869 -5.01283e-22 7.8952e-05)
(-0.000159463 2.77016e-22 8.23125e-05)
(-0.000140291 -1.20092e-22 8.53455e-05)
(-0.000120439 2.30857e-23 8.80171e-05)
(-0.000100001 1.29186e-22 9.02969e-05)
(-7.91041e-05 -2.9698e-22 9.24879e-05)
(-5.77796e-05 2.28752e-23 9.06137e-05)
(-3.82328e-05 2.06294e-22 0.000105111)
(-1.32143e-05 8.47593e-23 7.07337e-05)
(-5.99237e-05 -1.82492e-20 9.56289e-05)
(-0.000251465 -3.46041e-23 0.000120861)
(-0.000255711 4.01405e-22 0.000104422)
(-0.000231826 5.89437e-23 0.000123835)
(-0.000202168 -4.62188e-22 0.000133428)
(-0.000169354 4.85325e-23 0.000142518)
(-0.00013427 -9.98614e-23 0.00015021)
(-9.76219e-05 -5.28465e-22 0.000156169)
(-6.06205e-05 1.27755e-21 0.000160221)
(-2.74647e-05 7.83508e-22 0.000163373)
(-0.000111294 -4.18317e-28 -2.9107e-07)
(-0.000111439 -1.16175e-25 -8.77768e-07)
(-0.000111645 -6.65396e-24 -1.46375e-06)
(-0.00011195 -2.99692e-23 -2.04495e-06)
(-0.000112364 5.41784e-23 -2.63074e-06)
(-0.00011289 -3.34454e-24 -3.21995e-06)
(-0.000113525 -1.34524e-25 -3.81034e-06)
(-0.000114267 2.89677e-23 -4.40258e-06)
(-0.000115117 4.23493e-22 -4.99724e-06)
(-0.000116074 -1.19062e-23 -5.59466e-06)
(-0.00011714 3.436e-22 -6.19514e-06)
(-0.000118315 2.69315e-23 -6.79895e-06)
(-0.000119599 4.16781e-22 -7.40632e-06)
(-0.000120994 -7.38022e-24 -8.01748e-06)
(-0.0001225 3.76656e-22 -8.63264e-06)
(-0.000124118 3.05473e-23 -9.25194e-06)
(-0.000125849 4.95085e-22 -9.87551e-06)
(-0.000127693 3.152e-22 -1.05034e-05)
(-0.000129652 -4.15282e-22 -1.11358e-05)
(-0.000131726 4.67603e-22 -1.17725e-05)
(-0.000133917 4.72722e-22 -1.24136e-05)
(-0.000136225 3.66022e-22 -1.3059e-05)
(-0.000138651 3.16641e-23 -1.37086e-05)
(-0.000141196 5.0352e-22 -1.43621e-05)
(-0.00014386 7.505e-23 -1.50193e-05)
(-0.000146646 4.23526e-22 -1.56798e-05)
(-0.000149553 -1.84722e-22 -1.63431e-05)
(-0.000152581 -4.04374e-22 -1.70086e-05)
(-0.000155732 5.99857e-22 -1.76758e-05)
(-0.000159007 5.52316e-22 -1.83438e-05)
(-0.000162404 5.34666e-22 -1.90117e-05)
(-0.000165925 3.46387e-23 -1.96786e-05)
(-0.000169569 5.87004e-22 -2.03432e-05)
(-0.000173337 -3.21387e-22 -2.10042e-05)
(-0.000177228 2.85652e-23 -2.16601e-05)
(-0.000181241 9.13659e-23 -2.23092e-05)
(-0.000185374 1.34882e-23 -2.29495e-05)
(-0.000189628 -5.41739e-22 -2.35791e-05)
(-0.000194 -5.48244e-23 -2.41955e-05)
(-0.000198487 3.32124e-23 -2.47961e-05)
(-0.000203088 -6.37229e-23 -2.53781e-05)
(-0.0002078 4.08767e-23 -2.59384e-05)
(-0.000212618 6.89376e-23 -2.64733e-05)
(-0.000217538 4.90766e-23 -2.69792e-05)
(-0.000222555 1.89054e-22 -2.7452e-05)
(-0.000227664 6.50167e-22 -2.78871e-05)
(-0.000232858 -2.46708e-23 -2.82797e-05)
(-0.00023813 1.72991e-23 -2.86245e-05)
(-0.00024347 5.66498e-23 -2.89158e-05)
(-0.000248871 1.76798e-22 -2.91475e-05)
(-0.00025432 -5.56004e-23 -2.9313e-05)
(-0.000259807 7.35895e-23 -2.94053e-05)
(-0.000265318 1.66561e-22 -2.94171e-05)
(-0.000270838 4.42511e-23 -2.93404e-05)
(-0.000276352 -1.0459e-21 -2.91669e-05)
(-0.000281842 4.0298e-23 -2.88877e-05)
(-0.000287289 7.30096e-23 -2.84939e-05)
(-0.000292671 6.07172e-23 -2.79757e-05)
(-0.000297966 1.25132e-22 -2.73232e-05)
(-0.000303148 6.45978e-23 -2.65264e-05)
(-0.000308192 -1.57473e-22 -2.55746e-05)
(-0.000313067 2.58833e-23 -2.44574e-05)
(-0.000317743 -8.60805e-22 -2.31641e-05)
(-0.000322187 -7.56379e-23 -2.16841e-05)
(-0.000326362 8.45785e-24 -2.00071e-05)
(-0.000330232 1.27115e-22 -1.8123e-05)
(-0.000333757 5.34871e-23 -1.60222e-05)
(-0.000336894 -5.93275e-23 -1.36959e-05)
(-0.000339601 1.03948e-21 -1.11362e-05)
(-0.000341832 -8.01161e-23 -8.33642e-06)
(-0.000343539 1.41614e-22 -5.29027e-06)
(-0.000344675 3.38728e-22 -2.00807e-06)
(-0.000345187 1.15891e-21 1.53753e-06)
(-0.000345033 -1.85166e-22 5.34958e-06)
(-0.000344153 -7.70826e-23 9.39867e-06)
(-0.000342501 1.33497e-21 1.369e-05)
(-0.000340025 -1.63089e-22 1.8215e-05)
(-0.00033668 1.89612e-24 2.29619e-05)
(-0.000332419 -2.84406e-22 2.79148e-05)
(-0.000327198 1.00136e-21 3.30546e-05)
(-0.00032098 2.59391e-22 3.83577e-05)
(-0.00031373 8.39785e-23 4.37969e-05)
(-0.000305418 -1.20657e-22 4.93408e-05)
(-0.000296021 9.20141e-22 5.49542e-05)
(-0.000285524 2.56989e-22 6.0598e-05)
(-0.000273919 -1.57791e-22 6.623e-05)
(-0.000261208 7.79461e-22 7.18046e-05)
(-0.000247402 4.53052e-22 7.72738e-05)
(-0.000232521 2.21647e-23 8.25876e-05)
(-0.000216597 -1.96304e-22 8.76949e-05)
(-0.000199673 5.77833e-22 9.25441e-05)
(-0.000181803 2.69045e-22 9.7084e-05)
(-0.000163052 -3.39843e-22 0.000101265)
(-0.000143494 5.28526e-22 0.00010504)
(-0.000123217 5.87813e-23 0.000108365)
(-0.000102322 3.60588e-22 0.000111203)
(-8.09391e-05 -3.98724e-24 0.000113927)
(-5.9103e-05 2.44773e-22 0.000111634)
(-3.90732e-05 3.33122e-22 0.000129515)
(-1.34256e-05 4.07911e-23 8.7167e-05)
(-6.11829e-05 -2.96813e-23 0.000117859)
(-0.000262609 5.08863e-22 0.000148814)
(-0.000268419 1.44339e-22 0.000129251)
(-0.000244148 -5.60546e-22 0.000153494)
(-0.000213278 7.63365e-22 0.000165789)
(-0.000178889 9.18406e-22 0.000177349)
(-0.000141971 5.26701e-22 0.000187115)
(-0.000103321 -1.24342e-21 0.00019468)
(-6.42947e-05 -3.416e-22 0.000199822)
(-2.94744e-05 8.70725e-22 0.000203831)
(-0.000110658 -6.03626e-28 -3.43616e-07)
(-0.000110802 -1.50458e-25 -1.03621e-06)
(-0.000111007 -7.5831e-24 -1.72794e-06)
(-0.000111311 -3.58671e-23 -2.41404e-06)
(-0.000111724 2.08112e-23 -3.10555e-06)
(-0.000112248 4.55221e-24 -3.8011e-06)
(-0.00011288 -1.3424e-23 -4.49807e-06)
(-0.00011362 -2.56297e-23 -5.19725e-06)
(-0.000114467 -3.64017e-22 -5.89933e-06)
(-0.000115421 -4.21189e-22 -6.60473e-06)
(-0.000116483 -4.24425e-22 -7.31379e-06)
(-0.000117654 -1.23296e-23 -8.02682e-06)
(-0.000118935 -4.09063e-22 -8.74413e-06)
(-0.000120325 -4.31399e-22 -9.46597e-06)
(-0.000121827 -4.11855e-22 -1.01926e-05)
(-0.00012344 4.445e-23 -1.09242e-05)
(-0.000125166 -4.03972e-22 -1.16609e-05)
(-0.000127006 -4.41221e-22 -1.24028e-05)
(-0.00012896 -1.25029e-23 -1.31501e-05)
(-0.000131029 -4.33116e-22 -1.39027e-05)
(-0.000133215 -4.43226e-22 -1.46607e-05)
(-0.000135518 -3.9441e-22 -1.54239e-05)
(-0.00013794 7.81434e-23 -1.61921e-05)
(-0.00014048 -5.14422e-22 -1.69652e-05)
(-0.000143141 6.9182e-24 -1.77428e-05)
(-0.000145923 -5.13051e-22 -1.85244e-05)
(-0.000148827 8.66143e-22 -1.93096e-05)
(-0.000151853 1.30192e-22 -2.00978e-05)
(-0.000155003 -4.58287e-22 -2.08881e-05)
(-0.000158277 -5.60795e-22 -2.16797e-05)
(-0.000161675 -5.36184e-22 -2.24716e-05)
(-0.000165197 1.13631e-22 -2.32625e-05)
(-0.000168845 -4.5208e-22 -2.40511e-05)
(-0.000172617 -1.41751e-22 -2.48359e-05)
(-0.000176514 1.13018e-21 -2.56151e-05)
(-0.000180535 6.59327e-23 -2.63868e-05)
(-0.000184679 1.16035e-21 -2.71487e-05)
(-0.000188945 8.81269e-23 -2.78984e-05)
(-0.000193333 3.53565e-23 -2.86331e-05)
(-0.000197839 1.20479e-21 -2.93498e-05)
(-0.000202461 7.26369e-23 -3.00452e-05)
(-0.000207198 1.41623e-21 -3.07155e-05)
(-0.000212045 7.81025e-23 -3.13568e-05)
(-0.000216999 1.26617e-21 -3.19646e-05)
(-0.000222054 1.20029e-22 -3.25341e-05)
(-0.000227207 -8.77139e-22 -3.30599e-05)
(-0.000232449 1.5092e-21 -3.35365e-05)
(-0.000237776 9.2569e-23 -3.39574e-05)
(-0.000243178 1.80644e-21 -3.43162e-05)
(-0.000248646 9.79881e-23 -3.46055e-05)
(-0.000254171 1.58358e-21 -3.48177e-05)
(-0.000259741 1.93103e-21 -3.49445e-05)
(-0.000265343 2.15608e-21 -3.4977e-05)
(-0.000270965 -7.21406e-23 -3.49061e-05)
(-0.000276588 -5.46296e-23 -3.47217e-05)
(-0.000282198 1.91974e-21 -3.44135e-05)
(-0.000287775 9.00113e-23 -3.39705e-05)
(-0.000293298 1.97036e-21 -3.33813e-05)
(-0.000298744 1.16035e-22 -3.26342e-05)
(-0.00030409 1.96067e-21 -3.17168e-05)
(-0.000309308 1.21535e-22 -3.06167e-05)
(-0.00031437 2.08482e-21 -2.93211e-05)
(-0.000319244 8.06426e-23 -2.78172e-05)
(-0.000323897 5.83061e-23 -2.60922e-05)
(-0.000328293 2.26781e-21 -2.41334e-05)
(-0.000332395 2.5214e-21 -2.19286e-05)
(-0.000336162 9.42135e-23 -1.9466e-05)
(-0.000339552 -4.87408e-23 -1.67347e-05)
(-0.000342519 -1.00771e-21 -1.37249e-05)
(-0.000345016 -8.00219e-23 -1.04281e-05)
(-0.000346996 3.60316e-23 -6.83705e-06)