/*--------------------------------*- C++ -*----------------------------------*\
| =========                 |                                                 |
| \\      /  F ield         | OpenFOAM: The Open Source CFD Toolbox           |
|  \\    /   O peration     | Version:  v2106                                 |
|   \\  /    A nd           | Website:  www.openfoam.com                      |
|    \\/     M anipulation  |                                                 |
\*---------------------------------------------------------------------------*/
FoamFile
{
    version     2.0;
    format      ascii;
    arch        "LSB;label=32;scalar=64";
    class       volScalarField;
    location    "1.1";
    object      k;
}
// * * * * * * * * * * * * * * * * * * * * * * * * * * * * * * * * * * * * * //

dimensions      [0 2 -2 0 0 0 0];

internalField   nonuniform List<scalar> 
29678
(
0.000125816
0.000187532
0.00020346
0.000208655
0.000210836
0.000211918
0.000212512
0.000212859
0.000213074
0.00021322
0.000213332
0.000213429
0.000213521
0.000213611
0.000213701
0.000213792
0.000213883
0.000213976
0.000214068
0.000214155
0.000214241
0.000214324
0.000214406
0.000214485
0.000214563
0.000214639
0.000214712
0.000214783
0.000214851
0.000214917
0.000214979
0.000215038
0.000215094
0.000215145
0.000215192
0.000215235
0.000215272
0.000215302
0.000215324
0.00021534
0.000215348
0.000215348
0.000215341
0.000215327
0.000215307
0.000215281
0.000215253
0.000215222
0.000215191
0.000215162
0.000215136
0.000215114
0.000215097
0.00021508
0.000215064
0.000215048
0.000215033
0.000215017
0.000215001
0.000214983
0.000214963
0.000214939
0.000214911
0.000214879
0.00021484
0.000214796
0.000214744
0.000214685
0.000214619
0.000214544
0.000214462
0.000214373
0.00021428
0.000214187
0.000214098
0.000214021
0.000213965
0.000213937
0.000213945
0.000213996
0.000214094
0.000214245
0.000214451
0.00021472
0.000215057
0.000215453
0.000215893
0.000216362
0.000216863
0.000217394
0.000217948
0.000218522
0.000219108
0.000219704
0.000220333
0.000221017
0.000222271
0.0002262
0.000248647
0.000304456
0.000304544
0.000283657
0.00026697
0.000256849
0.000250531
0.000246107
0.000241292
0.000235964
0.000229042
0.000221612
0.000125818
0.000187547
0.000203476
0.000208677
0.000210866
0.000211958
0.000212563
0.000212923
0.000213152
0.000213313
0.00021344
0.000213552
0.000213656
0.000213756
0.000213852
0.000213946
0.00021404
0.000214135
0.000214229
0.000214322
0.000214415
0.000214506
0.000214595
0.000214683
0.000214769
0.000214852
0.000214932
0.00021501
0.000215084
0.000215155
0.000215221
0.000215284
0.000215341
0.000215394
0.000215441
0.000215482
0.000215517
0.000215545
0.000215567
0.000215582
0.000215588
0.000215583
0.00021557
0.000215548
0.00021552
0.000215487
0.000215451
0.000215415
0.000215382
0.000215354
0.000215332
0.000215311
0.000215294
0.000215279
0.000215267
0.000215256
0.000215248
0.000215239
0.000215231
0.000215221
0.000215209
0.000215193
0.000215173
0.000215147
0.000215115
0.000215075
0.000215027
0.00021497
0.000214904
0.000214827
0.000214741
0.000214647
0.000214547
0.000214446
0.000214348
0.000214262
0.000214197
0.000214164
0.00021417
0.000214221
0.000214321
0.000214477
0.000214699
0.000214991
0.000215353
0.000215787
0.000216287
0.00021684
0.000217432
0.000218057
0.000218711
0.000219392
0.000220098
0.000220834
0.00022163
0.000222492
0.000224122
0.000227941
0.000246603
0.000290923
0.00029094
0.00027937
0.000266696
0.000257014
0.000250281
0.000244503
0.000237794
0.000231143
0.000224952
0.000219872
0.000125829
0.000187568
0.000203496
0.000208704
0.000210903
0.000212006
0.000212624
0.000212996
0.000213239
0.000213414
0.000213554
0.000213676
0.000213785
0.000213889
0.000213993
0.000214095
0.000214197
0.000214299
0.0002144
0.0002145
0.000214599
0.000214697
0.000214792
0.000214886
0.000214978
0.000215066
0.000215152
0.000215235
0.000215313
0.000215388
0.000215459
0.000215525
0.000215585
0.000215641
0.00021569
0.000215733
0.000215769
0.000215798
0.000215819
0.000215832
0.000215837
0.000215834
0.000215822
0.000215799
0.000215768
0.00021573
0.000215689
0.000215648
0.000215609
0.000215575
0.000215547
0.000215523
0.000215502
0.000215485
0.00021547
0.000215457
0.000215446
0.000215435
0.000215425
0.000215413
0.000215398
0.000215381
0.000215359
0.000215331
0.000215297
0.000215255
0.000215205
0.000215146
0.000215077
0.000214999
0.000214913
0.000214818
0.000214719
0.000214618
0.000214524
0.000214444
0.00021439
0.000214369
0.00021439
0.000214457
0.000214573
0.000214747
0.000214988
0.000215302
0.000215694
0.000216155
0.000216673
0.000217234
0.000217833
0.000218468
0.000219137
0.000219841
0.00022058
0.000221369
0.000222213
0.000223159
0.000224679
0.000228551
0.000245292
0.000280107
0.000280135
0.000274728
0.000265496
0.000256871
0.000250608
0.000245431
0.000238768
0.000231867
0.000225288
0.000220004
0.000125836
0.000187592
0.000203523
0.000208738
0.000210947
0.000212061
0.000212688
0.00021307
0.000213323
0.000213506
0.000213651
0.000213773
0.000213886
0.000213994
0.0002141
0.000214205
0.00021431
0.000214414
0.000214517
0.000214618
0.000214718
0.000214817
0.000214914
0.000215008
0.000215101
0.00021519
0.000215277
0.00021536
0.00021544
0.000215516
0.000215588
0.000215655
0.000215717
0.000215774
0.000215825
0.00021587
0.000215908
0.00021594
0.000215965
0.000215982
0.000215991
0.000215992
0.000215985
0.000215971
0.000215947
0.000215916
0.00021588
0.000215843
0.000215808
0.000215775
0.000215745
0.000215718
0.000215694
0.000215673
0.000215655
0.000215638
0.000215623
0.000215608
0.000215593
0.000215577
0.000215558
0.000215536
0.000215509
0.000215477
0.000215438
0.000215392
0.000215338
0.000215275
0.000215205
0.000215126
0.00021504
0.000214948
0.000214854
0.000214762
0.000214678
0.000214613
0.000214576
0.000214575
0.000214617
0.000214704
0.000214843
0.000215039
0.000215299
0.000215625
0.000216016
0.000216466
0.000216969
0.000217518
0.00021811
0.000218744
0.00021942
0.000220139
0.000220903
0.000221727
0.000222585
0.000223547
0.000224962
0.00022894
0.000244111
0.000271963
0.000272009
0.000270709
0.000263456
0.000255459
0.000249984
0.00024562
0.000239537
0.000232971
0.000226264
0.000220517
0.000125838
0.000187619
0.000203553
0.000208779
0.000210999
0.000212122
0.000212757
0.000213146
0.000213404
0.000213589
0.000213731
0.000213852
0.000213964
0.000214071
0.000214177
0.000214281
0.000214385
0.000214488
0.00021459
0.000214691
0.00021479
0.000214887
0.000214983
0.000215077
0.000215169
0.000215258
0.000215344
0.000215427
0.000215507
0.000215583
0.000215655
0.000215723
0.000215786
0.000215843
0.000215896
0.000215943
0.000215983
0.000216017
0.000216045
0.000216066
0.000216079
0.000216086
0.000216085
0.000216078
0.000216064
0.000216044
0.00021602
0.000215993
0.000215965
0.000215937
0.00021591
0.000215885
0.000215862
0.000215842
0.000215824
0.000215807
0.000215791
0.000215775
0.000215759
0.00021574
0.000215719
0.000215694
0.000215664
0.000215629
0.000215586
0.000215537
0.00021548
0.000215415
0.000215343
0.000215264
0.00021518
0.000215093
0.000215005
0.000214923
0.000214852
0.000214802
0.000214782
0.0002148
0.000214863
0.000214972
0.000215132
0.000215343
0.000215611
0.000215939
0.000216326
0.000216771
0.000217268
0.000217815
0.000218408
0.000219049
0.000219738
0.000220475
0.000221264
0.000222116
0.000222971
0.000223901
0.000225236
0.000229307
0.000243142
0.000265801
0.000265877
0.00026709
0.000261035
0.000253481
0.000248778
0.000245349
0.00023993
0.000233776
0.000227001
0.000220917
0.000125832
0.000187646
0.000203588
0.000208827
0.000211058
0.000212192
0.000212834
0.000213227
0.000213485
0.000213665
0.000213803
0.000213921
0.00021403
0.000214135
0.000214238
0.000214341
0.000214443
0.000214544
0.000214644
0.000214743
0.000214841
0.000214938
0.000215033
0.000215126
0.000215217
0.000215306
0.000215392
0.000215475
0.000215556
0.000215632
0.000215705
0.000215773
0.000215838
0.000215897
0.000215951
0.000216
0.000216043
0.00021608
0.000216111
0.000216136
0.000216153
0.000216165
0.00021617
0.000216168
0.000216161
0.000216149
0.000216134
0.000216115
0.000216094
0.000216073
0.000216053
0.000216034
0.000216016
0.000215999
0.000215984
0.00021597
0.000215956
0.000215942
0.000215926
0.000215908
0.000215888
0.000215862
0.000215832
0.000215796
0.000215752
0.000215701
0.000215642
0.000215576
0.000215504
0.000215426
0.000215344
0.000215261
0.000215181
0.000215109
0.000215051
0.000215016
0.000215012
0.000215049
0.000215131
0.00021526
0.000215434
0.000215656
0.000215933
0.000216266
0.000216656
0.000217101
0.000217599
0.000218148
0.000218747
0.000219398
0.0002201
0.000220856
0.000221667
0.000222538
0.000223372
0.00022425
0.000225553
0.000229692
0.000242304
0.000260862
0.000260967
0.000264086
0.000258546
0.000251013
0.000247127
0.000244578
0.000239922
0.000234365
0.000227694
0.000221346
0.00012582
0.000187675
0.000203628
0.000208881
0.000211127
0.000212271
0.000212919
0.000213313
0.000213566
0.00021374
0.000213874
0.000213988
0.000214093
0.000214195
0.000214295
0.000214395
0.000214495
0.000214594
0.000214693
0.000214791
0.000214888
0.000214984
0.000215079
0.000215172
0.000215262
0.000215351
0.000215438
0.000215521
0.000215602
0.00021568
0.000215754
0.000215824
0.00021589
0.000215951
0.000216008
0.000216059
0.000216106
0.000216146
0.000216181
0.000216209
0.000216232
0.000216248
0.000216259
0.000216264
0.000216263
0.000216258
0.00021625
0.000216239
0.000216225
0.000216212
0.000216197
0.000216184
0.000216171
0.000216158
0.000216147
0.000216136
0.000216125
0.000216114
0.000216101
0.000216086
0.000216068
0.000216045
0.000216016
0.000215981
0.000215939
0.000215888
0.00021583
0.000215764
0.000215692
0.000215615
0.000215536
0.000215458
0.000215385
0.000215323
0.000215277
0.000215256
0.000215268
0.000215322
0.000215423
0.000215567
0.000215753
0.000215987
0.000216274
0.000216614
0.000217009
0.000217457
0.000217959
0.000218513
0.000219121
0.000219782
0.000220499
0.000221274
0.000222106
0.000222985
0.000223776
0.000224616
0.000225933
0.000230115
0.000241551
0.000256647
0.00025672
0.000261477
0.000256093
0.000248259
0.000245024
0.000243255
0.0002393
0.000234528
0.000228154
0.00022171
0.0001258
0.000187706
0.000203672
0.000208943
0.000211205
0.00021236
0.000213013
0.000213404
0.000213649
0.000213818
0.000213947
0.000214057
0.000214158
0.000214256
0.000214354
0.000214451
0.000214549
0.000214646
0.000214744
0.000214841
0.000214937
0.000215032
0.000215126
0.000215219
0.00021531
0.000215399
0.000215486
0.00021557
0.000215652
0.000215731
0.000215807
0.000215879
0.000215947
0.000216011
0.00021607
0.000216125
0.000216175
0.000216219
0.000216258
0.000216291
0.000216319
0.000216341
0.000216358
0.000216369
0.000216375
0.000216378
0.000216376
0.000216373
0.000216367
0.00021636
0.000216352
0.000216344
0.000216337
0.00021633
0.000216323
0.000216316
0.000216309
0.000216301
0.000216291
0.000216279
0.000216264
0.000216244
0.000216219
0.000216187
0.000216148
0.000216101
0.000216045
0.000215981
0.000215911
0.000215837
0.000215761
0.000215688
0.000215622
0.000215568
0.000215533
0.000215525
0.000215552
0.000215622
0.000215737
0.000215895
0.000216093
0.000216338
0.000216634
0.000216982
0.000217383
0.000217838
0.000218346
0.000218908
0.000219526
0.0002202
0.000220934
0.000221727
0.000222579
0.000223455
0.000224194
0.000225011
0.000226381
0.000230567
0.000240835
0.000252899
0.000253037
0.000259268
0.000253803
0.000245262
0.000242109
0.000241272
0.000237705
0.00023407
0.000228284
0.000222021
0.000125773
0.000187737
0.000203721
0.000209013
0.000211293
0.000212459
0.000213111
0.000213496
0.000213737
0.0002139
0.000214024
0.000214129
0.000214226
0.000214321
0.000214416
0.000214511
0.000214606
0.000214702
0.000214798
0.000214894
0.000214989
0.000215084
0.000215177
0.00021527
0.000215361
0.000215451
0.000215539
0.000215624
0.000215707
0.000215788
0.000215865
0.00021594
0.00021601
0.000216077
0.00021614
0.000216198
0.000216252
0.0002163
0.000216344
0.000216383
0.000216416
0.000216444
0.000216467
0.000216485
0.000216499
0.000216509
0.000216515
0.000216519
0.000216521
0.000216522
0.000216521
0.00021652
0.000216519
0.000216517
0.000216516
0.000216514
0.000216511
0.000216507
0.000216501
0.000216493
0.000216481
0.000216465
0.000216444
0.000216417
0.000216382
0.00021634
0.000216289
0.000216231
0.000216165
0.000216095
0.000216024
0.000215956
0.000215895
0.000215849
0.000215823
0.000215826
0.000215866
0.000215949
0.000216076
0.000216245
0.000216454
0.000216709
0.000217013
0.00021737
0.000217779
0.000218242
0.000218759
0.000219331
0.000219961
0.000220651
0.000221401
0.000222214
0.000223081
0.000223929
0.000224632
0.000225444
0.000226889
0.00023105
0.000240258
0.000249958
0.00025024
0.000257383
0.000251609
0.000241729
0.00023908
0.000238439
0.000235416
0.000232636
0.000227833
0.000222221
0.000125738
0.00018777
0.000203774
0.00020909
0.00021139
0.000212562
0.000213211
0.000213592
0.000213828
0.000213986
0.000214104
0.000214205
0.000214298
0.00021439
0.000214482
0.000214574
0.000214668
0.000214762
0.000214857
0.000214951
0.000215046
0.00021514
0.000215233
0.000215326
0.000215418
0.000215508
0.000215596
0.000215683
0.000215768
0.00021585
0.00021593
0.000216007
0.00021608
0.00021615
0.000216216
0.000216279
0.000216337
0.00021639
0.000216439
0.000216483
0.000216523
0.000216558
0.000216588
0.000216613
0.000216635
0.000216653
0.000216668
0.00021668
0.00021669
0.000216699
0.000216706
0.000216712
0.000216718
0.000216724
0.000216728
0.000216732
0.000216735
0.000216736
0.000216735
0.000216731
0.000216724
0.000216713
0.000216697
0.000216674
0.000216645
0.000216609
0.000216565
0.000216513
0.000216455
0.000216392
0.000216327
0.000216264
0.00021621
0.00021617
0.000216153
0.000216164
0.000216214
0.000216307
0.000216443
0.00021662
0.000216839
0.000217103
0.000217416
0.00021778
0.000218198
0.00021867
0.000219197
0.000219781
0.000220425
0.000221131
0.0002219
0.000222733
0.000223608
0.000224401
0.000225092
0.000225921
0.000227448
0.000231569
0.000239873
0.000247882
0.000248349
0.000255728
0.000249581
0.00023856
0.000236294
0.000235584
0.000233047
0.000230744
0.000226891
0.000222189
0.000125695
0.000187804
0.000203832
0.000209174
0.000211492
0.000212667
0.000213313
0.000213693
0.000213923
0.000214075
0.000214188
0.000214284
0.000214374
0.000214463
0.000214552
0.000214643
0.000214734
0.000214826
0.00021492
0.000215013
0.000215107
0.000215201
0.000215294
0.000215387
0.000215479
0.00021557
0.00021566
0.000215748
0.000215834
0.000215919
0.000216001
0.000216081
0.000216157
0.000216231
0.000216301
0.000216368
0.00021643
0.000216489
0.000216544
0.000216594
0.00021664
0.000216682
0.00021672
0.000216753
0.000216783
0.00021681
0.000216834
0.000216855
0.000216874
0.000216891
0.000216907
0.000216922
0.000216937
0.00021695
0.000216962
0.000216973
0.000216982
0.00021699
0.000216995
0.000216997
0.000216995
0.00021699
0.000216979
0.000216963
0.00021694
0.000216911
0.000216875
0.000216831
0.000216782
0.000216728
0.000216672
0.000216617
0.00021657
0.000216538
0.000216526
0.000216545
0.000216602
0.000216701
0.000216843
0.000217027
0.000217253
0.000217524
0.000217844
0.000218216
0.000218642
0.000219123
0.00021966
0.000220257
0.000220915
0.000221639
0.000222428
0.00022328
0.000224143
0.000224882
0.000225578
0.000226441
0.000228053
0.000232126
0.000239681
0.00024648
0.000247151
0.000254075
0.000247721
0.000235878
0.000233701
0.000232835
0.000230636
0.000228616
0.00022544
0.000221656
0.000125645
0.000187839
0.000203894
0.000209265
0.000211594
0.000212772
0.000213421
0.000213797
0.000214021
0.000214167
0.000214276
0.000214368
0.000214454
0.00021454
0.000214627
0.000214715
0.000214804
0.000214895
0.000214987
0.00021508
0.000215173
0.000215266
0.00021536
0.000215453
0.000215546
0.000215637
0.000215729
0.000215818
0.000215907
0.000215994
0.000216078
0.000216161
0.000216241
0.000216319
0.000216393
0.000216465
0.000216533
0.000216597
0.000216658
0.000216715
0.000216769
0.000216818
0.000216864
0.000216906
0.000216945
0.000216981
0.000217014
0.000217045
0.000217074
0.000217101
0.000217127
0.000217152
0.000217175
0.000217197
0.000217218
0.000217238
0.000217255
0.000217271
0.000217283
0.000217293
0.000217298
0.000217299
0.000217295
0.000217286
0.000217271
0.00021725
0.000217222
0.000217188
0.000217148
0.000217105
0.00021706
0.000217016
0.000216979
0.000216954
0.00021695
0.000216975
0.000217036
0.000217138
0.000217283
0.00021747
0.000217701
0.000217977
0.000218303
0.00021868
0.000219112
0.000219601
0.000220149
0.000220758
0.000221431
0.000222173
0.000222983
0.000223843
0.000224659
0.000225377
0.000226091
0.000227
0.0002287
0.000232731
0.000239691
0.000245628
0.000246434
0.000252284
0.000245932
0.000233651
0.000231319
0.000230261
0.000228286
0.000226469
0.00022386
0.000220891
0.000125587
0.000187875
0.000203961
0.00020936
0.000211698
0.000212879
0.000213532
0.000213903
0.000214121
0.000214262
0.000214366
0.000214454
0.000214538
0.000214621
0.000214705
0.000214791
0.000214879
0.000214968
0.000215059
0.000215151
0.000215243
0.000215336
0.00021543
0.000215524
0.000215617
0.00021571
0.000215803
0.000215894
0.000215985
0.000216074
0.000216162
0.000216248
0.000216332
0.000216414
0.000216493
0.00021657
0.000216644
0.000216715
0.000216783
0.000216847
0.000216908
0.000216966
0.00021702
0.000217072
0.000217121
0.000217166
0.00021721
0.000217251
0.000217291
0.000217329
0.000217366
0.000217401
0.000217435
0.000217468
0.000217499
0.000217528
0.000217556
0.000217581
0.000217602
0.000217621
0.000217635
0.000217644
0.000217649
0.000217648
0.000217641
0.000217629
0.000217611
0.000217587
0.000217558
0.000217526
0.000217493
0.000217463
0.000217438
0.000217424
0.000217428
0.000217459
0.000217523
0.000217626
0.000217771
0.000217958
0.00021819
0.000218468
0.000218796
0.000219176
0.000219612
0.000220106
0.000220662
0.000221283
0.000221972
0.000222732
0.000223559
0.00022441
0.000225172
0.000225887
0.000226632
0.000227598
0.000229386
0.000233387
0.000239893
0.00024523
0.000246041
0.000250346
0.000244372
0.000232031
0.000229516
0.000228116
0.000226277
0.000224591
0.000222438
0.000220122
0.000125522
0.000187913
0.000204032
0.000209457
0.000211804
0.000212988
0.000213645
0.00021401
0.000214223
0.000214358
0.000214458
0.000214543
0.000214624
0.000214704
0.000214786
0.00021487
0.000214957
0.000215045
0.000215134
0.000215226
0.000215318
0.000215411
0.000215505
0.000215599
0.000215693
0.000215788
0.000215882
0.000215976
0.000216069
0.000216161
0.000216252
0.000216342
0.00021643
0.000216517
0.000216602
0.000216684
0.000216764
0.000216842
0.000216917
0.000216989
0.000217059
0.000217125
0.00021719
0.000217251
0.00021731
0.000217367
0.000217422
0.000217475
0.000217526
0.000217576
0.000217625
0.000217673
0.000217719
0.000217763
0.000217806
0.000217848
0.000217887
0.000217923
0.000217956
0.000217985
0.00021801
0.00021803
0.000218044
0.000218053
0.000218057
0.000218054
0.000218047
0.000218034
0.000218017
0.000217996
0.000217976
0.000217958
0.000217947
0.000217946
0.000217961
0.000218
0.000218068
0.000218171
0.000218314
0.000218499
0.000218728
0.000219004
0.00021933
0.000219709
0.000220145
0.000220642
0.000221203
0.000221833
0.000222535
0.000223312
0.000224146
0.000224948
0.000225688
0.000226417
0.000227202
0.000228232
0.000230106
0.000234092
0.000240252
0.000245169
0.000245896
0.000248353
0.000243331
0.000231147
0.000228458
0.000226632
0.000224929
0.000223296
0.000221429
0.000219515
0.000125448
0.000187951
0.000204105
0.000209549
0.00021191
0.000213104
0.00021376
0.00021412
0.000214326
0.000214456
0.000214552
0.000214634
0.000214712
0.00021479
0.000214871
0.000214953
0.000215038
0.000215125
0.000215214
0.000215304
0.000215396
0.000215489
0.000215584
0.000215679
0.000215774
0.00021587
0.000215966
0.000216063
0.000216158
0.000216254
0.000216349
0.000216443
0.000216536
0.000216627
0.000216717
0.000216806
0.000216893
0.000216978
0.000217061
0.000217142
0.000217221
0.000217297
0.000217372
0.000217444
0.000217515
0.000217584
0.000217651
0.000217717
0.000217781
0.000217845
0.000217907
0.000217968
0.000218028
0.000218086
0.000218143
0.000218198
0.00021825
0.0002183
0.000218346
0.000218388
0.000218426
0.000218458
0.000218486
0.000218507
0.000218522
0.000218531
0.000218535
0.000218534
0.000218529
0.000218522
0.000218514
0.000218509
0.00021851
0.000218522
0.00021855
0.000218598
0.000218672
0.000218777
0.000218917
0.000219098
0.000219321
0.000219591
0.000219911
0.000220284
0.000220716
0.00022121
0.000221772
0.000222408
0.000223122
0.000223909
0.000224721
0.000225475
0.000226213
0.000226967
0.0002278
0.0002289
0.000230849
0.000234833
0.0002407
0.000245309
0.000245881
0.000246415
0.000242895
0.000230905
0.000228036
0.000225862
0.000224227
0.000222568
0.000220849
0.000219151
0.000125368
0.000187991
0.000204182
0.00020964
0.000212017
0.000213222
0.000213876
0.000214229
0.00021443
0.000214556
0.000214648
0.000214727
0.000214803
0.000214879
0.000214958
0.000215039
0.000215122
0.000215208
0.000215296
0.000215387
0.000215479
0.000215572
0.000215667
0.000215763
0.00021586
0.000215958
0.000216056
0.000216155
0.000216254
0.000216353
0.000216451
0.00021655
0.000216648
0.000216745
0.000216841
0.000216937
0.000217031
0.000217124
0.000217216
0.000217306
0.000217395
0.000217482
0.000217568
0.000217652
0.000217735
0.000217817
0.000217898
0.000217978
0.000218057
0.000218135
0.000218213
0.000218289
0.000218365
0.000218439
0.000218512
0.000218583
0.000218651
0.000218716
0.000218778
0.000218836
0.000218888
0.000218936
0.000218978
0.000219013
0.000219043
0.000219066
0.000219084
0.000219096
0.000219104
0.000219109
0.000219114
0.000219121
0.000219134
0.000219158
0.000219197
0.000219255
0.000219336
0.000219445
0.000219584
0.00021976
0.000219975
0.000220235
0.000220545
0.000220907
0.000221329
0.000221815
0.000222373
0.000223011
0.00022373
0.000224511
0.000225265
0.000225999
0.000226748
0.000227535
0.000228423
0.000229601
0.000231606
0.000235602
0.000241229
0.000245618
0.000245966
0.000244557
0.000242733
0.000231167
0.000228155
0.000225687
0.000224035
0.000222295
0.000220618
0.000218999
0.000125279
0.000188031
0.00020426
0.000209733
0.000212125
0.000213342
0.000213992
0.00021434
0.000214535
0.000214656
0.000214745
0.000214822
0.000214895
0.00021497
0.000215047
0.000215127
0.000215209
0.000215294
0.000215382
0.000215472
0.000215564
0.000215658
0.000215754
0.000215851
0.00021595
0.00021605
0.00021615
0.000216252
0.000216354
0.000216457
0.00021656
0.000216663
0.000216767
0.00021687
0.000216973
0.000217076
0.000217178
0.00021728
0.000217381
0.000217481
0.000217581
0.00021768
0.000217778
0.000217875
0.000217972
0.000218068
0.000218164
0.00021826
0.000218355
0.00021845
0.000218544
0.000218639
0.000218732
0.000218824
0.000218915
0.000219005
0.000219092
0.000219176
0.000219256
0.000219332
0.000219403
0.000219468
0.000219527
0.00021958
0.000219626
0.000219665
0.000219698
0.000219726
0.000219748
0.000219768
0.000219786
0.000219805
0.000219829
0.000219863
0.00021991
0.000219976
0.000220063
0.000220175
0.000220316
0.000220488
0.000220696
0.000220944
0.000221239
0.000221585
0.00022199
0.000222462
0.000223009
0.00022364
0.000224351
0.000225082
0.000225796
0.000226527
0.000227294
0.00022812
0.000229066
0.000230327
0.000232364
0.000236388
0.000241816
0.000246017
0.000246101
0.000242934
0.000242809
0.000231852
0.000228674
0.000225978
0.000224277
0.000222394
0.000220664
0.000219011
0.000125183
0.000188072
0.000204342
0.000209829
0.000212234
0.000213462
0.000214108
0.00021445
0.00021464
0.000214758
0.000214844
0.000214918
0.00021499
0.000215063
0.000215138
0.000215217
0.000215299
0.000215383
0.000215471
0.000215561
0.000215653
0.000215748
0.000215845
0.000215943
0.000216044
0.000216146
0.000216249
0.000216354
0.00021646
0.000216567
0.000216675
0.000216784
0.000216893
0.000217003
0.000217113
0.000217224
0.000217335
0.000217446
0.000217557
0.000217668
0.00021778
0.000217891
0.000218002
0.000218114
0.000218226
0.000218338
0.000218451
0.000218564
0.000218677
0.00021879
0.000218904
0.000219018
0.000219132
0.000219246
0.000219358
0.000219469
0.000219577
0.000219683
0.000219785
0.000219882
0.000219974
0.000220061
0.00022014
0.000220213
0.000220278
0.000220337
0.000220387
0.000220432
0.00022047
0.000220505
0.000220537
0.000220569
0.000220604
0.000220646
0.0002207
0.00022077
0.00022086
0.000220974
0.000221114
0.000221283
0.000221484
0.00022172
0.000221999
0.000222325
0.000222708
0.000223157
0.000223685
0.000224296
0.000224962
0.000225631
0.000226325
0.000227059
0.000227848
0.000228715
0.000229721
0.000231065
0.000233111
0.000237172
0.000242456
0.000246473
0.000246361
0.000241979
0.000243367
0.00023287
0.000229426
0.000226606
0.000224857
0.000222796
0.000220926
0.000219139
0.00012508
0.000188115
0.000204426
0.000209928
0.000212344
0.000213583
0.000214224
0.000214561
0.000214746
0.00021486
0.000214943
0.000215015
0.000215085
0.000215157
0.000215232
0.000215309
0.000215391
0.000215475
0.000215562
0.000215653
0.000215746
0.000215841
0.000215939
0.000216039
0.000216142
0.000216246
0.000216353
0.000216461
0.000216571
0.000216683
0.000216796
0.00021691
0.000217026
0.000217143
0.000217261
0.00021738
0.0002175
0.000217622
0.000217744
0.000217867
0.000217991
0.000218116
0.000218243
0.00021837
0.000218498
0.000218628
0.000218759
0.000218891
0.000219024
0.000219159
0.000219295
0.000219432
0.000219569
0.000219706
0.000219843
0.000219978
0.000220112
0.000220243
0.00022037
0.000220493
0.000220611
0.000220722
0.000220826
0.000220922
0.000221009
0.000221088
0.000221157
0.000221218
0.000221272
0.000221321
0.000221367
0.000221412
0.000221459
0.000221512
0.000221574
0.000221648
0.000221739
0.00022185
0.000221986
0.000222149
0.000222342
0.000222567
0.000222828
0.000223133
0.000223488
0.000223907
0.0002244
0.000224958
0.000225546
0.000226175
0.000226855
0.000227594
0.000228407
0.000229313
0.000230378
0.000231805
0.000233841
0.000237954
0.000243166
0.000246555
0.000246827
0.000241869
0.00024411
0.00023393
0.000230305
0.000227441
0.000225643
0.000223396
0.000221333
0.000219339
0.000124968
0.000188158
0.000204504
0.00021003
0.000212456
0.000213704
0.00021434
0.000214671
0.000214851
0.000214962
0.000215043
0.000215113
0.000215182
0.000215253
0.000215326
0.000215404
0.000215484
0.000215569
0.000215656
0.000215747
0.000215841
0.000215937
0.000216037
0.000216139
0.000216244
0.000216351
0.000216461
0.000216573
0.000216687
0.000216804
0.000216922
0.000217043
0.000217166
0.00021729
0.000217417
0.000217545
0.000217676
0.000217808
0.000217942
0.000218078
0.000218216
0.000218356
0.000218499
0.000218643
0.00021879
0.000218939
0.00021909
0.000219244
0.0002194
0.000219558
0.000219719
0.000219881
0.000220045
0.00022021
0.000220375
0.000220539
0.000220702
0.000220863
0.00022102
0.000221173
0.000221319
0.000221457
0.000221583
0.000221699
0.000221803
0.000221897
0.000221982
0.000222058
0.000222126
0.000222189
0.000222249
0.000222307
0.000222365
0.000222428
0.000222498
0.00022258
0.000222676
0.000222792
0.000222929
0.000223091
0.000223274
0.000223484
0.000223727
0.000224009
0.000224333
0.00022471
0.000225131
0.0002256
0.000226126
0.000226722
0.000227389
0.000228132
0.000228965
0.000229907
0.000231025
0.000232532
0.000234546
0.000238706
0.000243819
0.000245981
0.000246995
0.000242726
0.000245146
0.000235058
0.000231292
0.000228405
0.000226524
0.000224094
0.000221804
0.000219567
0.00012485
0.000188201
0.000204576
0.000210132
0.000212573
0.000213824
0.000214455
0.000214781
0.000214957
0.000215064
0.000215143
0.000215212
0.00021528
0.000215349
0.000215422
0.000215499
0.00021558
0.000215664
0.000215752
0.000215843
0.000215938
0.000216036
0.000216137
0.000216242
0.000216349
0.000216459
0.000216573
0.000216689
0.000216808
0.00021693
0.000217054
0.000217182
0.000217312
0.000217445
0.00021758
0.000217719
0.00021786
0.000218004
0.000218151
0.000218302
0.000218455
0.000218611
0.000218771
0.000218934
0.000219101
0.000219271
0.000219446
0.000219623
0.000219805
0.00021999
0.000220178
0.00022037
0.000220565
0.000220761
0.000220959
0.000221157
0.000221354
0.000221548
0.000221737
0.000221915
0.000222082
0.000222238
0.000222383
0.000222517
0.00022264
0.000222752
0.000222854
0.000222947
0.000223032
0.00022311
0.000223183
0.000223252
0.000223321
0.000223392
0.000223467
0.000223552
0.000223648
0.00022376
0.000223892
0.000224046
0.000224226
0.000224433
0.000224667
0.000224922
0.000225201
0.000225505
0.000225848
0.000226247
0.00022672
0.000227278
0.000227928
0.00022867
0.000229517
0.000230489
0.000231649
0.000233227
0.00023521
0.000239373
0.000244228
0.0002454
0.000246794
0.000244812
0.000246446
0.000236191
0.000232296
0.000229428
0.000227397
0.000224786
0.000222257
0.000219774
0.000124723
0.000188245
0.000204644
0.000210235
0.000212692
0.000213943
0.00021457
0.00021489
0.000215062
0.000215166
0.000215243
0.000215311
0.000215378
0.000215447
0.00021552
0.000215596
0.000215677
0.000215761
0.00021585
0.000215942
0.000216038
0.000216138
0.000216241
0.000216348
0.000216458
0.000216571
0.000216689
0.000216809
0.000216933
0.000217061
0.000217192
0.000217327
0.000217465
0.000217606
0.000217752
0.000217901
0.000218054
0.000218211
0.000218372
0.000218538
0.000218707
0.000218882
0.000219061
0.000219245
0.000219434
0.000219628
0.000219827
0.000220032
0.000220242
0.000220457
0.000220677
0.000220903
0.000221132
0.000221365
0.0002216
0.000221834
0.000222061
0.000222279
0.000222487
0.000222686
0.000222874
0.000223052
0.000223218
0.000223374
0.000223518
0.000223651
0.000223774
0.000223886
0.000223988
0.000224082
0.000224169
0.000224251
0.000224329
0.000224406
0.000224485
0.000224569
0.000224662
0.000224766
0.000224884
0.000225021
0.000225177
0.000225356
0.000225558
0.000225787
0.000226035
0.000226297
0.000226584
0.000226922
0.000227338
0.000227853
0.000228476
0.000229209
0.000230061
0.000231051
0.000232237
0.000233869
0.000235815
0.000239885
0.000244273
0.000245423
0.000247168
0.00024779
0.00024797
0.000237322
0.000233286
0.00023048
0.000228209
0.000225403
0.000222618
0.000219919
0.00012459
0.000188288
0.000204711
0.000210338
0.000212811
0.000214062
0.000214683
0.000214998
0.000215166
0.000215268
0.000215344
0.00021541
0.000215477
0.000215545
0.000215618
0.000215694
0.000215775
0.00021586
0.000215949
0.000216043
0.00021614
0.000216241
0.000216347
0.000216456
0.000216569
0.000216687
0.000216808
0.000216934