/*--------------------------------*- C++ -*----------------------------------*\
| =========                 |                                                 |
| \\      /  F ield         | OpenFOAM: The Open Source CFD Toolbox           |
|  \\    /   O peration     | Version:  v2106                                 |
|   \\  /    A nd           | Website:  www.openfoam.com                      |
|    \\/     M anipulation  |                                                 |
\*---------------------------------------------------------------------------*/
FoamFile
{
    version     2.0;
    format      ascii;
    arch        "LSB;label=32;scalar=64";
    class       volScalarField;
    location    "1.1";
    object      nut;
}
// * * * * * * * * * * * * * * * * * * * * * * * * * * * * * * * * * * * * * //

dimensions      [0 2 -1 0 0 0 0];

internalField   nonuniform List<scalar> 
29678
(
1.27477e-05
0.000133747
0.000383716
0.000705964
0.00100119
0.0012151
0.00134518
0.00141381
0.00144592
0.00145949
0.0014648
0.00146682
0.00146765
0.00146808
0.00146839
0.00146864
0.00146887
0.00146908
0.00145874
0.00140274
0.00135396
0.00131361
0.00128015
0.00125286
0.00123138
0.00121555
0.00120532
0.00120079
0.00120221
0.00120999
0.0012247
0.0012472
0.00127863
0.00132051
0.0013752
0.00144668
0.00146913
0.00146909
0.00146904
0.001469
0.00146895
0.00146891
0.00146887
0.00146883
0.00146879
0.00146877
0.00146876
0.00146876
0.00146878
0.00146882
0.0014689
0.001469
0.0013452
0.00116718
0.00102905
0.000920582
0.000834005
0.000763971
0.000706776
0.000659763
0.00062101
0.000589116
0.000563022
0.000541915
0.000525166
0.000512298
0.000503022
0.000497164
0.000494662
0.000495556
0.000499997
0.000508273
0.000520834
0.000538288
0.000561414
0.000591225
0.000629127
0.000677324
0.000739882
0.00082421
0.000942154
0.00111172
0.0013604
0.00146902
0.00146808
0.00146645
0.00146387
0.0013123
0.000988148
0.000778862
0.000636603
0.000537525
0.000468477
0.000422442
0.000386484
0.000358081
0.000342406
0.000124946
5.55618e-05
0.000227293
0.000121402
5.41893e-05
3.44317e-05
3.25782e-05
3.88556e-05
3.67694e-05
4.10618e-05
3.8599e-05
4.71189e-05
7.24204e-05
1.27781e-05
0.000133812
0.000383916
0.000706275
0.00100153
0.0012154
0.00134543
0.00141404
0.00144614
0.00145972
0.00146505
0.00146709
0.00146793
0.00142137
0.00133633
0.00126081
0.00119485
0.00113726
0.0010871
0.0010434
0.00100544
0.000973273
0.000946453
0.000924486
0.000907035
0.0008939
0.000884994
0.000880336
0.000880056
0.000884407
0.00089378
0.000908746
0.000930115
0.000959018
0.000997091
0.00104671
0.00111119
0.00119528
0.00130669
0.00145815
0.00146753
0.00146756
0.00146759
0.00146762
0.00146765
0.0014677
0.00146775
0.00146783
0.00146793
0.00146806
0.0013243
0.00111079
0.000951164
0.000829571
0.000734723
0.000659425
0.000598871
0.00054965
0.000509295
0.000476011
0.000448495
0.000425785
0.00040715
0.000392031
0.000379995
0.000370725
0.000364015
0.000359738
0.000357836
0.000358326
0.000361295
0.00036692
0.000375484
0.000387382
0.000403127
0.00042341
0.000449186
0.000481877
0.000523875
0.000579196
0.000653952
0.000756689
0.000899513
0.00108738
0.00125491
0.001237
0.00103457
0.000814041
0.000643579
0.000520902
0.000432129
0.000366436
0.000317049
0.000278058
0.000242233
0.00022122
0.000155006
9.78781e-05
5.43465e-05
0.000190243
0.000161538
6.18664e-05
3.21184e-05
3.6763e-05
3.47255e-05
3.25628e-05
3.16492e-05
3.01276e-05
3.46146e-05
3.70352e-05
1.28057e-05
0.000133904
0.000384202
0.000706732
0.00100203
0.00121586
0.00134581
0.00141436
0.00144644
0.00146002
0.00146537
0.00142209
0.00131933
0.00123088
0.00115437
0.00108717
0.00102856
0.000978117
0.000934541
0.000897101
0.000864674
0.000837201
0.000814234
0.000795309
0.000780098
0.000768395
0.000760084
0.000755137
0.000753611
0.000755646
0.000761482
0.000771479
0.000786151
0.000806221
0.000832728
0.000867112
0.000911248
0.000967863
0.00104066
0.00113526
0.00126033
0.00142913
0.00146645
0.00146657
0.00146668
0.00146679
0.00146692
0.00146706
0.00146722
0.00146741
0.00125646
0.00105734
0.000906026
0.000790188
0.000699596
0.000627748
0.000570005
0.000523094
0.000484643
0.000452918
0.00042667
0.000404975
0.000387128
0.00037259
0.000360942
0.000351889
0.000345222
0.000340809
0.000338587
0.000338556
0.000340779
0.000345404
0.000352671
0.000362918
0.000376586
0.000394268
0.000416791
0.000445386
0.000482054
0.000529731
0.000592255
0.000672954
0.000770077
0.000866096
0.000912169
0.000866115
0.000754956
0.000633214
0.000527151
0.000442352
0.000375861
0.000323274
0.000281358
0.000245656
0.000214978
0.000190844
0.000141781
9.76815e-05
5.29154e-05
0.000162388
0.000139228
8.20544e-05
4.58047e-05
3.92386e-05
3.76866e-05
3.34456e-05
3.27653e-05
3.27582e-05
3.97756e-05
4.05182e-05
1.28419e-05
0.000134008
0.000384533
0.000707264
0.00100262
0.00121638
0.00134624
0.00141471
0.00144675
0.00146032
0.00141053
0.00130309
0.00121246
0.00113551
0.00106904
0.00101121
0.000961449
0.00091872
0.00088185
0.000849716
0.000821719
0.000797681
0.000777354
0.000760464
0.000746791
0.000736187
0.000728572
0.000723928
0.000722302
0.000723808
0.000728634
0.000737058
0.000749467
0.000766385
0.000788512
0.000816747
0.000852174
0.000896196
0.000950886
0.00101894
0.00110393
0.00120997
0.00134152
0.00146606
0.00146622
0.00146638
0.00146655
0.00146674
0.00146694
0.00133494
0.001147
0.000989662
0.000862853
0.000761211
0.000679389
0.000613109
0.000559023
0.000514578
0.000477831
0.000447311
0.000421929
0.000400857
0.000383446
0.000369194
0.000357711
0.000348713
0.000341997
0.00033743
0.000334936
0.000334499
0.000336158
0.000340023
0.000346283
0.000355199
0.000367109
0.00038247
0.000401943
0.000426443
0.000456984
0.000494177
0.000537804
0.000586054
0.000633193
0.000668648
0.000679508
0.000656042
0.000601581
0.000531936
0.00046201
0.000399461
0.000346023
0.00030098
0.000263187
0.00022934
0.00020178
0.00017358
0.000134303
9.20063e-05
5.22434e-05
0.000141882
0.000156624
8.72701e-05
4.50042e-05
4.3654e-05
4.08617e-05
4.04796e-05
4.04294e-05
4.11991e-05
4.47282e-05
3.87228e-05
1.28867e-05
0.000134117
0.000384885
0.000707834
0.00100326
0.00121695
0.0013467
0.00141508
0.00144706
0.00143571
0.00132522
0.00123152
0.00115362
0.00108587
0.00102708
0.000975801
0.000931235
0.000892545
0.000858907
0.000829534
0.000803912
0.000781769
0.000762892
0.000747082
0.00073418
0.000724074
0.000716707
0.000712069
0.000710204
0.000711208
0.000715236
0.000722511
0.000733334
0.0007481
0.000767309
0.000791575
0.000821626
0.000858326
0.000902708
0.000955825
0.00101847
0.00109082
0.00117174
0.00125745
0.00133784
0.0013951
0.00140689
0.00135952
0.00126074
0.00113536
0.00100855
0.000893899
0.000794889
0.000711443
0.000641854
0.000583966
0.000535739
0.000495454
0.00046175
0.000433525
0.000409892
0.000390155
0.000373761
0.000360269
0.000349335
0.000340702
0.000334181
0.000329644
0.000327013
0.000326257
0.000327394
0.000330498
0.000335706
0.000343211
0.000353263
0.00036622
0.000382553
0.000402591
0.000425974
0.000451741
0.000479084
0.000506731
0.000531244
0.000547267
0.000549437
0.000533455
0.00049941
0.000453953
0.000404865
0.000357624
0.000314685
0.000276704
0.000243449
0.000212762
0.000188766
0.000159838
0.000129097
8.70731e-05
5.13098e-05
0.000121667
0.000145019
0.000104507
5.33436e-05
4.84278e-05
4.68276e-05
4.55673e-05
4.69322e-05
4.79992e-05
5.15231e-05
4.33857e-05
1.29406e-05
0.000134229
0.000385248
0.000708428
0.00100393
0.00121756
0.00134718
0.00141545
0.00144732
0.00135515
0.00125972
0.00118001
0.00111038
0.00104944
0.000996118
0.000949262
0.000908098
0.00087198
0.000840299
0.000812502
0.000788169
0.000767023
0.00074886
0.000733508
0.000720831
0.000710734
0.000703162
0.000698099
0.000695572
0.000695649
0.00069844
0.000704107
0.000712861
0.000724971
0.000740766
0.000760625
0.000784973
0.000814254
0.00084889
0.000889138
0.000934843
0.000984975
0.0010369
0.0010858
0.00112566
0.00114805
0.00114405
0.0011087
0.00104513
0.000964411
0.000879219
0.000797126
0.000722041
0.000655647
0.000598138
0.000548872
0.000506858
0.000471121
0.000440828
0.000415208
0.000393574
0.000375381
0.000360194
0.000347636
0.00033741
0.00032928
0.000323071
0.000318663
0.000315975
0.00031497
0.000315649
0.000318058
0.000322295
0.000328496
0.000336848
0.000347588
0.000360872
0.000376344
0.000392942
0.000409904
0.000427237
0.000443795
0.000456784
0.000463381
0.000461324
0.000448339
0.000424281
0.000392245
0.000356359
0.000320107
0.00028559
0.000253845
0.00022501
0.000197966
0.000177115
0.000148893
0.000124752
8.36862e-05
5.07928e-05
0.0001038
0.0001323
0.000105281
5.55803e-05
5.21808e-05
5.44785e-05
5.38461e-05
5.769e-05
5.80175e-05
6.03526e-05
4.84416e-05
1.30038e-05
0.000134342
0.00038562
0.000709039
0.00100462
0.00121819
0.00134768
0.00141578
0.00137635
0.00128202
0.00120182
0.00113171
0.0010693
0.00101421
0.000965474
0.000922256
0.000883943
0.000850026
0.000820042
0.00079357
0.000770271
0.000749892
0.000732243
0.000717171
0.000704554
0.000694302
0.000686359
0.000680699
0.000677329
0.000676284
0.000677633
0.000681474
0.000687937
0.000697182
0.000709393
0.000724764
0.000743485
0.000765703
0.000791464
0.000820604
0.000852566
0.000886125
0.000919024
0.000947662
0.00096743
0.000973618
0.000962488
0.000932889
0.000887356
0.000831487
0.00077122
0.000710946
0.000653643
0.000601066
0.00055399
0.000512542
0.000476436
0.000445205
0.000418331
0.0003953
0.000375645
0.000358978
0.000344967
0.000333315
0.000323783
0.000316165
0.000310296
0.000306056
0.000303359
0.00030216
0.000302449
0.00030425
0.000307623
0.000312658
0.000319465
0.000328119
0.000338439
0.000349698
0.000360963
0.000372053
0.000383091
0.000392927
0.000399565
0.00040144
0.000397455
0.000386353
0.000368037
0.00034406
0.000316813
0.00028839
0.000260369
0.000233769
0.000208846
0.000185301
0.000166823
0.000140085
0.000121113
8.13983e-05
5.09825e-05
8.82427e-05
0.000111773
0.000104853
5.94763e-05
6.06717e-05
6.7615e-05
6.47265e-05
7.1154e-05
6.98795e-05
7.17464e-05
5.62377e-05
1.3077e-05
0.000134457
0.000386
0.000709666
0.00100533
0.00121883
0.00134813
0.00137747
0.00129098
0.00121285
0.00114467
0.00108269
0.00102716
0.000977552
0.000933142
0.000893378
0.000857816
0.000826069
0.000797783
0.000772638
0.000750361
0.000730737
0.000713593
0.000698792
0.000686224
0.000675804
0.000667473
0.000661196
0.000656962
0.000654778
0.000654675
0.000656701
0.000660918
0.0006674
0.000676225
0.000687455
0.00070112
0.000717183
0.000735485
0.000755666
0.000777046
0.000798469
0.000818155
0.000833645
0.000842065
0.000840676
0.00082767
0.000802929
0.000768206
0.000726661
0.000681628
0.000635808
0.000591255
0.000549367
0.000510939
0.000476343
0.00044563
0.000418632
0.000395034
0.000374534
0.000356861
0.000341737
0.000328902
0.000318139
0.000309262
0.000302113
0.000296561
0.00029249
0.000289813
0.000288471
0.000288439
0.000289719
0.00029234
0.000296342
0.000301751
0.000308479
0.000316139
0.000323998
0.000331504
0.00033877
0.000345758
0.000351458
0.000354541
0.000354002
0.000349156
0.000339477
0.000324858
0.000306112
0.000284711
0.00026193
0.000238894
0.000216473
0.000194916
0.000174482
0.00015775
0.000133018
0.000118184
7.99503e-05
5.20658e-05
7.55322e-05
9.34204e-05
9.91667e-05
6.10728e-05
7.48945e-05
8.7268e-05
8.05315e-05
8.93017e-05
8.49728e-05
8.57765e-05
6.58712e-05
1.31605e-05
0.000134572
0.000386386
0.000710307
0.00100606
0.00121943
0.00134836
0.00128127
0.00120984
0.00114628
0.0010872
0.00103309
0.00098406
0.000939638
0.0008994
0.000863006
0.000830158
0.00080058
0.000774013
0.000750216
0.000728977
0.000710116
0.000693488
0.00067897
0.000666464
0.00065589
0.000647187
0.000640313
0.000635242
0.00063196
0.000630468
0.000630771
0.000632885
0.00063682
0.000642577
0.000650133
0.00065942
0.000670297
0.000682512
0.000695641
0.000709024
0.000721688
0.000732295
0.000739184
0.000740579
0.000734956
0.000721494
0.000700383
0.000672788
0.000640596
0.000605788
0.000570067
0.000534844
0.000501173
0.000469743
0.00044095
0.000414965
0.000391772
0.000371227
0.000353172
0.000337446
0.000323853
0.000312211
0.000302372
0.00029418
0.000287509
0.000282257
0.000278341
0.00027569
0.000274241
0.000273951
0.000274798
0.000276779
0.000279887
0.000284069
0.000289128
0.000294624
0.000299995
0.000304986
0.000309735
0.000314064
0.00031719
0.000318224
0.000316431
0.000311393
0.00030294
0.000290967
0.000275857
0.000258592
0.000239974
0.000220802
0.000201762
0.000183053
0.000165233
0.000149841
0.000127381
0.000115819
7.92783e-05
5.42357e-05
6.6152e-05
7.97096e-05
9.48266e-05
6.17236e-05
9.97779e-05
0.000117559
0.00010224
0.000112147
0.000103158
0.000102552
7.77393e-05
1.3255e-05
0.000134688
0.000386777
0.000710961
0.00100678
0.00121965
0.0012497
0.00119089
0.00113494
0.00108161
0.00103083
0.000983898
0.000940771
0.000901172
0.000864884
0.00083172
0.0008015
0.000774045
0.000749175
0.000726717
0.00070651
0.000688411
0.0006723
0.000658072
0.000645639
0.000634927
0.000625877
0.00061844
0.00061258
0.000608267
0.000605478
0.000604191
0.000604384
0.000606026
0.00060907
0.000613438
0.00061901
0.000625598
0.00063292
0.000640566
0.000647961
0.000654335
0.000658722
0.000660022
0.000657154
0.000649279
0.000636043
0.000617689
0.00059498
0.000569112
0.000541345
0.00051278
0.000484403
0.000456975
0.000431059
0.000407002
0.000385
0.000365118
0.000347327
0.000331543
0.000317665
0.000305552
0.000295089
0.00028617
0.000278687
0.000272537
0.000267627
0.000263886
0.000261267
0.000259727
0.000259222
0.000259712
0.00026116
0.000263518
0.000266675
0.00027039
0.000274268
0.000277929
0.000281273
0.000284354
0.000286944
0.000288477
0.000288345
0.000285997
0.000281155
0.000273807
0.000263862
0.000251464
0.000237263
0.000221813
0.000205684
0.000189388
0.000173062
0.000157366
0.000143083
0.000122935
0.000113998
7.92649e-05
5.75221e-05
5.98787e-05
7.04286e-05
9.26785e-05
6.11549e-05
0.000139581
0.000164635
0.00013204
0.000140484
0.000124606
0.00012148
9.13675e-05
1.33609e-05
0.000134805
0.000387175
0.000711619
0.00100735
0.00119725
0.00115531
0.00110889
0.00106515
0.00101994
0.000976557
0.000935929
0.000898044
0.000862822
0.000830181
0.000800038
0.000772305
0.000746878
0.000723645
0.000702486
0.000683285
0.000665933
0.000650332
0.000636396
0.000624047
0.000613218
0.000603852
0.000595898
0.000589311
0.000584052
0.000580082
0.000577359
0.000575837
0.000575459
0.00057615
0.000577805
0.000580279
0.000583374
0.000586818
0.000590247
0.000593191
0.000595066
0.000595192
0.000592852
0.000587393
0.000578359
0.000565613
0.000549385
0.000530175
0.000508778
0.000486037
0.000462678
0.000439397
0.000416748
0.000395169
0.000374941
0.00035625
0.000339197
0.000323799
0.000310023
0.000297818
0.000287091
0.000277764
0.000269748
0.000262964
0.000257346
0.000252819
0.000249311
0.00024677
0.000245167
0.000244477
0.000244664
0.000245672
0.00024742
0.000249766
0.000252471
0.000255215
0.000257755
0.000260035
0.000262035
0.000263535
0.000264123
0.000263379
0.000260913
0.000256474
0.000250138
0.000241853
0.000231621
0.000219778
0.000206828
0.000193144
0.000179089
0.000164746
0.000150776
0.000137472
0.000119497
0.000112762
7.97641e-05
6.17957e-05
5.58265e-05
6.3542e-05
9.3564e-05
5.98536e-05
0.000197642
0.000241246
0.000171114
0.000172722
0.000148305
0.00014159
0.000106276
1.34789e-05
0.000134922
0.000387577
0.000712254
0.00100722
0.00110627
0.00107146
0.00103634
0.0010001
0.000961981
0.000924952
0.000889721
0.000856423
0.000825103
0.000795763
0.000768391
0.000742965
0.00071944
0.000697755
0.000677834
0.000659597
0.000642965
0.000627862
0.000614216
0.000601963
0.000591041
0.000581397
0.00057298
0.000565741
0.000559634
0.00055461
0.000550617
0.000547595
0.000545472
0.000544159
0.000543541
0.000543472
0.000543762
0.000544166
0.000544383
0.000544041
0.00054271
0.000539921
0.00053521
0.000528186
0.000518605
0.000506435
0.000491875
0.000475257
0.000457128
0.000438077
0.000418591
0.000399167
0.000380208
0.000362045
0.000344911
0.000328961
0.000314298
0.000300958
0.00028894
0.000278218
0.000268743
0.000260458
0.0002533
0.000247204
0.000242115
0.00023798
0.000234744
0.00023235
0.000230751
0.000229927
0.00022986
0.000230503
0.000231766
0.000233498
0.000235485
0.000237479
0.000239313
0.000240931
0.000242269
0.000243132
0.000243216
0.000242233
0.000239911
0.000236026
0.000230637
0.000223751
0.000215338
0.000205419
0.000194498
0.000182826
0.000170629
0.000157941
0.000145403
0.000132998
0.000116942
0.000112179
8.06404e-05
6.67958e-05
5.31443e-05
5.71768e-05
9.81888e-05
5.80545e-05
0.000255247
0.000349792
0.000217244
0.000204177
0.000172205
0.000161719
0.000121818
1.36098e-05
0.00013504
0.000387982
0.000712839
0.00100669
0.00102329
0.00099676
0.000970865
0.000940098
0.000907891
0.000876214
0.000845579
0.00081626
0.000788377
0.000761983
0.000737119
0.000713803
0.000692036
0.000671793
0.000653035
0.000635711
0.000619766
0.000605144
0.000591786
0.00057964
0.000568652
0.000558772
0.00054995
0.000542139
0.000535287
0.000529343
0.000524247
0.000519935
0.00051633
0.000513338
0.000510847
0.000508717
0.00050678
0.000504828
0.000502617
0.000499865
0.00049626
0.000491483
0.000485237
0.000477289
0.000467516
0.000455934
0.00044271
0.00042807
0.000412399
0.000396121
0.000379574
0.000363107
0.000347026
0.000331571
0.000316935
0.000303237
0.000290579
0.000278997
0.000268506
0.000259091
0.000250732
0.000243387
0.000237015
0.000231566
0.000226995
0.000223257
0.000220308
0.000218105
0.00021659
0.000215722
0.000215478
0.000215832
0.000216713
0.000217992
0.000219488
0.000221008
0.000222422
0.000223659
0.000224635
0.00022518
0.00022507
0.00022411
0.0002221
0.000218856
0.000214363
0.000208753
0.000201855
0.0001936
0.000184398
0.000174436
0.000163813
0.000152551
0.00014123
0.000129656
0.0001152
0.000112344
8.17918e-05
7.2014e-05
5.12844e-05
5.08093e-05
0.000108688
5.58744e-05
0.000257431
0.000366902
0.000252217
0.000224655
0.000192227
0.000180105
0.000137108
1.37543e-05
0.000135159
0.000388387
0.000713216
0.000973051
0.000951514
0.000930302
0.000910809
0.000884851
0.00085759
0.000830378
0.000803655
0.00077777
0.000752889
0.000729103
0.000706482
0.000685078
0.000664917
0.000646004
0.000628327
0.000611859
0.000596564
0.000582402
0.000569329
0.000557301
0.000546273
0.0005362
0.000527036
0.000518732
0.00051124
0.000504507
0.000498472
0.00049307
0.000488224
0.000483846
0.00047983
0.000476052
0.000472368
0.000468607
0.000464579
0.000460071
0.000454864
0.000448741
0.000441516
0.000433053
0.000423296
0.000412281
0.00040015
0.000387058
0.000373278
0.000359127
0.000344852
0.000330689
0.000316869
0.000303574
0.000290963
0.000279118
0.000268132
0.000258041
0.000248862
0.000240593
0.000233222
0.000226719
0.000221061
0.000216207
0.000212122
0.000208772
0.000206119
0.000204128
0.000202749
0.000201926
0.000201616
0.000201786
0.00020239
0.000203338
0.0002045
0.000205729
0.000206912
0.000207964
0.000208791
0.000209247
0.000209167
0.000208407
0.000206823
0.000204273
0.000200654
0.000196158
0.000190611
0.000183906
0.000176188
0.000167733
0.000158478
0.000148508
0.000138274
0.000127465
0.000114252
0.000113398
8.3151e-05
7.65124e-05
5.01237e-05
4.48408e-05
0.000129356
5.38514e-05
0.000216212
0.000291333
0.000254614
0.000226706
0.000203039
0.000193804
0.000150362
1.39135e-05
0.000135277
0.00038878
0.000712974
0.000906404
0.000888578
0.000872131
0.000855956
0.000834107
0.00081093
0.000787419
0.00076401
0.000741075
0.000718803
0.000697308
0.000676682
0.000656992
0.000638287
0.000620591
0.000603911
0.000588238
0.000573554
0.000559831
0.000547037
0.000535139
0.000524098
0.000513875
0.000504427
0.000495711
0.00048768
0.000480281
0.000473459
0.00046715
0.000461283
0.000455776
0.000450536
0.000445456
0.000440417
0.000435282
0.000429906
0.000424132
0.000417807
0.000410788
0.000402958
0.000394242
0.000384623
0.000374142
0.000362918
0.000351068
0.000338775
0.00032629
0.000313791
0.000301448
0.000289425
0.000277875
0.000266901
0.000256585
0.000246996
0.000238164
0.000230106
0.000222832
0.000216329
0.00021058
0.000205566
0.000201257
0.000197624
0.000194642
0.000192279
0.000190508
0.000189288
0.000188565
0.000188285
0.000188396
0.000188849
0.000189588
0.000190529
0.000191577
0.00019264
0.000193634
0.000194458
0.000194988
0.000195091
0.000194649
0.000193566
0.000191713
0.000188999
0.000185505
0.000181206
0.000175954
0.000169625
0.000162532
0.000154544
0.000145774
0.000136494
0.000126414
0.000114047
0.000115448
8.46365e-05
7.88659e-05
4.97648e-05
3.94302e-05
0.000173256
5.23774e-05
0.000170598
0.000230272
0.00023424
0.000215204
0.000204123
0.000201297
0.000160217
1.40884e-05
0.000135396
0.000389153
0.000712393
0.000845622
0.000832737
0.000820367
0.000806187
0.000787587
0.000767716
0.000747259
0.000726646
0.000706235
0.00068622
0.000666729
0.000647864
0.000629705
0.000612311
0.00059572
0.000579952
0.000565015
0.0005509
0.000537594
0.000525074
0.000513315
0.000502286
0.000491954
0.000482281
0.000473228
0.000464751
0.000456804
0.000449333
0.000442282
0.000435585
0.000429173
0.000422963
0.000416868
0.000410791
0.000404625
0.000398261
0.000391587
0.000384496
0.000376895
0.000368715
0.000359918
0.000350505
0.000340522
0.000330063
0.000319229
0.000308128
0.000296964
0.000285884
0.000274993
0.000264413
0.000254276
0.000244644
0.000235589
0.000227165
0.000219398
0.0002123
0.000205886
0.000200141
0.000195061
0.000190625
0.000186813
0.000183601
0.000180967
0.000178885
0.000177332
0.000176278
0.000175678
0.000175481
0.000175628
0.000176057
0.000176716
0.000177549
0.0001785
0.000179509
0.00018051
0.000181414
0.000182118
0.000182502
0.000182464
0.000181928
0.00018079
0.00017896
0.000176439
0.000173351
0.000169423
0.000164472
0.000158629
0.00015189
0.000144313
0.000136071
0.000126795
0.000114816
0.000118963
8.63684e-05
7.80184e-05
5.04936e-05
3.48853e-05
0.000291415
5.12726e-05
0.000138231
0.000192918
0.000211131
0.000201959
0.000201041
0.000204858
0.000167256
1.42802e-05
0.000135515
0.00038951
0.000711658
0.000792209
0.000782752
0.000773627
0.000760929
0.00074491
0.000727711
0.000709779
0.000691519
0.000673262
0.000655195
0.000637452
0.000620137
0.000603336
0.000587115
0.000571521
0.000556585
0.000542323
0.000528739
0.000515827
0.000503575
0.000491965
0.000480971
0.000470568
0.000460723
0.000451402
0.000442566
0.000434174
0.00042618
0.000418531
0.000411173
0.000404045
0.000397079
0.000390204
0.000383343
0.000376415
0.000369339
0.000362036
0.000354435
0.000346476
0.00033812
0.000329352
0.000320186
0.000310663
0.000300859
0.000290866
0.000280741
0.000270643
0.000260709
0.000250989
0.000241588
0.000232598
0.000224074
0.000216062
0.000208616
0.000201748
0.000195471
0.000189798
0.000184716
0.000180226
0.000176308
0.000172948
0.000170124
0.000167819
0.000166011
0.000164676
0.000163792
0.000163324
0.000163231
0.000163461
0.000163948
0.000164637
0.000165476
0.000166423
0.00016744
0.000168488
0.000169506
0.000170419
0.000171129
0.000171542
0.000171584
0.000171174
0.000170225
0.000168683
0.000166698
0.000164046
0.000160521
0.000155995
0.000150721
0.000144462
0.000137373
0.000129086
0.000117038
0.00012489
8.8666e-05
7.42754e-05
5.38356e-05
3.17096e-05
0.000535035
4.99925e-05
0.000114566
0.000166217
0.000190268
0.000190511
0.000197837
0.0002081
0.000173467
1.44904e-05
0.000135634
0.000389854
0.000710862
0.000744887
0.000737522
0.000731044
0.000719615
0.000705695
0.000690674
0.000674837
0.000658562
0.000642141
0.000625752
0.000609527
0.000593571
0.000577971
0.000562796
0.000548099
0.000533917
0.000520274
0.000507181
0.000494642
0.000482651
0.000471195
0.000460258
0.000449819
0.00043985
0.000430324
0.000421207
0.000412464
0.000404054
0.000395934
0.000388058
0.000380374
0.000372828
0.000365364
0.000357922
0.000350442
0.000342865
0.000335137
0.000327212
0.000319053
0.000310642
0.000301976
0.000293074
0.000283976
0.000274741
0.000265454
0.000256138
0.000246918
0.000237918
0.000229159
0.000220724
0.000212678
0.00020507
0.000197931
0.000191304
0.000185198
0.000179624
0.00017459
0.000170087
0.000166116
0.000162661
0.000159709
0.000157243
0.000155247
0.000153702
0.000152586
0.00015188
0.000151555
0.000151579
0.000151908
0.00015249
0.00015327
0.000154196
0.000155226
0.000156328
0.000157474
0.000158632
0.000159756
0.000160785
0.000161643
0.000162264
0.000162576
0.000162525
0.000161989
0.000161023
0.000159718
0.000157655
0.000154607
0.000150879
0.000146227
0.000140566
0.000133599
0.000120822
0.000133768
9.21185e-05
7.01163e-05
6.44067e-05
2.96056e-05
0.000309711
4.82218e-05
9.87866e-05
0.000145887
0.00017294
0.000182062
0.000196618
0.000214015
0.000181265
1.47208e-05
0.000135754
0.000390179
0.00070873
0.000702781
0.000696445
0.000692062
0.000681806
0.000669623
0.000656388
0.000642294
0.00062769
0.000612834
0.000597888
0.00058298
0.000568212
0.00055367
0.000539424
0.00052553
0.00051203
0.000498952
0.000486314
0.000474126
0.000462387
0.000451093
0.000440231
0.000429785
0.000419736
0.000410061
0.000400731
0.000391718
0.000382987
0.000374504
0.00036623
0.000358124
0.000350144
0.000342245
0.000334383
0.000326514
0.000318597
0.000310596
0.000302482
0.000294236
0.000285851
0.000277333
0.000268703
0.000259997
0.000251262
0.000242574
0.000233943
0.000225454
0.000217221
0.000209262
0.000201625
0.000194367
0.000187519
0.000181114
0.00017518
0.00016972
0.000164745
0.000160264
0.000156268
0.000152752
0.000149709
0.000147125
0.000144986
0.000143277
0.000141983
0.000141083
0.00014056
0.000140389
0.000140543
0.000140987
0.000141679
0.000142574
0.000143624
0.00014479
0.000146038
0.000147341
0.000148678
0.000150023
0.000151348
0.000152609
0.000153786
0.000154814
0.000155594
0.000156042
0.000156132
0.000156087
0.000155585
0.000154351
0.00015233
0.00014949
0.00014557
0.00014067
0.000126609
0.000146445
9.76916e-05
6.82144e-05
9.89902e-05
2.75576e-05
0.000151388
4.55366e-05
8.87732e-05
0.000131154
0.000160545
0.000177702
0.000199226
0.000225705
0.000193497
1.49733e-05
0.000135873
0.000390332
0.00067194
0.000665102
0.000659602
0.000656372
0.000647193
0.000636433
0.000624659
0.000612014
0.000598816
0.000585289
0.000571583
0.000557814
0.000544082
0.00053047
0.000517048
0.000503871
0.000490986
0.000478423
0.000466205
0.000454346
0.000442852
0.000431722
0.00042095
0.000410526
0.000400434
0.000390657
0.000381174
0.000371961
0.000362991
0.000354236
0.000345666
0.000337248
0.00032895
0.00032074
0.000312585
0.000304453
0.000296319
0.000288159
0.000279956
0.000271702
0.000263399
0.000255057
0.000246698
0.000238355
0.000230065
0.000221888
0.000213848
0.000205976
0.000198379
0.000191091
0.000184122
0.000177523
0.000171316
0.000165532
0.000160182
0.000155274
0.000150815
0.00014681
0.000143252
0.000140135
0.000137454
0.000135197
0.000133351
0.000131906
0.000130845
0.000130152
0.000129812
0.000129801
0.000130095
0.000130666
0.000131481
0.000132501
0.000133689
0.000135011
0.000136436
0.000137939
0.000139499
0.000141094
0.00014271
0.000144389
0.000146032
0.000147623
0.000149151
0.000150559
0.000151781
0.000152959
0.000154067
0.000154798
0.000154862
0.000154355
0.000152869
0.00015135
0.00013563
0.000164982
0.000107402
7.20356e-05
0.000449061
2.73536e-05
8.85347e-05
4.40146e-05
7.89184e-05
0.000121088
0.000151178
0.000177474
0.000206799
0.000247362
0.000214503
1.52499e-05
0.000135991
0.000390279
0.000636976
0.000631106
0.000626572
0.000623779
0.000615502
0.00060589
0.000595304
0.00058386
0.000571843
0.000559445
0.000546799
0.000534015
0.000521185
0.000508389
0.000495695
0.00048316
0.000470827
0.000458732
0.000446902
0.000435352
0.000424093
0.00041313
0.000402461
0.00039208
0.000381978
0.000372142
0.000362556
0.000353203
0.000344062
0.000335111
0.000326328
0.000317689
0.000309169
0.000300746
0.000292397
0.000284101
0.000275842
0.000267607
0.000259387
0.000251182
0.000242999
0.00023485
0.000226757
0.000218748
0.000210856
0.000203125
0.000195595
0.000188253
0.000181191
0.000174471
0.000168067
0.000162025
0.000156361
0.000151102
0.000146251
0.000141811
0.000137792
0.000134192
0.00013101
0.00012824
0.000125877
0.000123911
0.000122332
0.000121128
0.000120286
0.00011979
0.000119627
0.000119775
0.000120214
0.00012092
0.000121863
0.000123015
0.000124344
0.000125822
0.000127423
0.000129129
0.000130922
0.000132799
0.000134776
0.000136765
0.000138774
0.000140844
0.000143032
0.000145351
0.000147673
0.000150092
0.000152898
0.000155723
0.000158315
0.000160848
0.000162779
0.000166835
0.000149652
0.000192604
0.000125112
8.67286e-05
0.000132756
3.06318e-05
6.5837e-05
4.55614e-05
7.08562e-05
0.000117208
0.00014413
0.000182034
0.000220751
0.000286206
0.000252586
1.55529e-05
0.000136106
0.000390104
0.000604873
0.000600237
0.000596624
0.00059399
0.000586451
0.000577762
0.000568144
0.000557697
0.000546671
0.00053523
0.000523492
0.000511558
0.000499513
0.000487433
0.000475382
0.000463417
0.000451582
0.000439913
0.000428438
0.000417178
0.000406146
0.00039535
0.000384793
0.000374474
0.000364388
0.000354528
0.000344882
0.000335439
0.000326184
0.000317101
0.000308174
0.000299386
0.000290721
0.000282163
0.000273698
0.000265313
0.000257
0.000248751
0.000240567
0.000232451
0.000224412
0.000216465
0.00020863
0.000200932
0.000193398
0.000186061
0.00017897
0.000172087
0.00016549
0.000159248
0.00015333
0.00014776
0.00014256
0.00013774
0.000133308
0.000129261
0.000125618
0.000122369
0.000119512
0.000117047
0.000114966
0.00011326
0.000111921
0.000110938
0.000110298
0.000109988
0.000109994
0.000110298
0.000110881
0.000111722
0.000112797
0.000114081
0.00011555
0.00011718
0.00011895
0.000120847
0.000122867
0.000125023
0.000127238
0.000129495
0.000131887
0.000134414
0.000137159
0.000140218
0.000143573
0.000147233
0.000151598
0.000156618
0.000162221
0.000168585
0.000175368
0.000188538
0.000171729
0.00023604
0.000160119
0.000129767
7.01458e-05
3.53235e-05
5.08606e-05
4.89819e-05
6.72687e-05
0.000117635
0.000139116
0.000190432
0.000240753
0.000353823
0.000328183
1.58852e-05
0.00013622
0.00038986
0.000575689
0.000572067
0.000569245
0.00056669
0.000559768
0.00055183
0.000543009
0.000533391
0.000523198
0.000512569
0.000501608
0.000490407
0.000479044
0.000467592
0.00045611
0.000444652
0.000433264
0.000421981
0.000410834
0.000399844
0.000389029
0.000378399
0.000367962
0.00035772
0.000347673
0.000337818
0.000328148
0.000318656
0.000309334
0.00030017
0.000291155
0.000282278
0.000273528
0.000264897
0.000256376
0.00024796
0.000239644
0.000231429
0.000223317
0.000215317
0.000207438
0.000199696
0.000192109
0.000184699
0.00017749
0.000170506