/*--------------------------------*- C++ -*----------------------------------*\
| =========                 |                                                 |
| \\      /  F ield         | OpenFOAM: The Open Source CFD Toolbox           |
|  \\    /   O peration     | Version:  v2106                                 |
|   \\  /    A nd           | Website:  www.openfoam.com                      |
|    \\/     M anipulation  |                                                 |
\*---------------------------------------------------------------------------*/
FoamFile
{
    version     2.0;
    format      ascii;
    arch        "LSB;label=32;scalar=64";
    class       volScalarField;
    location    "1.1";
    object      omega;
}
// * * * * * * * * * * * * * * * * * * * * * * * * * * * * * * * * * * * * * //

dimensions      [0 0 -1 0 0 0 0];

internalField   nonuniform List<scalar> 
29678
(
6.81012
1.40214
0.530237
0.295561
0.210585
0.174404
0.157981
0.150556
0.147362
0.146092
0.145639
0.145505
0.145485
0.145503
0.145535
0.145571
0.145611
0.145653
0.145696
0.145742
0.145789
0.145839
0.145889
0.14594
0.145992
0.146045
0.146097
0.146149
0.146201
0.146251
0.146299
0.146345
0.146389
0.14643
0.146467
0.1465
0.14653
0.146555
0.146575
0.14659
0.1466
0.146604
0.146604
0.146598
0.146587
0.146573
0.146554
0.146533
0.14651
0.146486
0.146461
0.146436
0.146411
0.146388
0.146367
0.146348
0.146333
0.14632
0.146311
0.146304
0.146299
0.146295
0.146291
0.146287
0.14628
0.146272
0.146259
0.146239
0.146212
0.146175
0.146129
0.146075
0.146013
0.145945
0.145875
0.145807
0.145746
0.145699
0.14567
0.145669
0.145704
0.145789
0.145937
0.146165
0.146488
0.146922
0.147481
0.148189
0.149076
0.150159
0.151456
0.152977
0.154727
0.156751
0.159418
0.164064
0.177966
0.237238
0.608198
1.19767
1.20032
1.09741
0.934224
0.73383
0.622837
0.579502
0.529714
0.480094
0.376764
0.245793
6.81018
1.40157
0.530002
0.295461
0.210544
0.174393
0.157989
0.150578
0.147394
0.146133
0.145688
0.145562
0.14555
0.145577
0.145618
0.145666
0.145718
0.145773
0.145831
0.145892
0.145956
0.146021
0.146089
0.146157
0.146226
0.146294
0.146362
0.146429
0.146494
0.146556
0.146615
0.14667
0.14672
0.146765
0.146805
0.146838
0.146865
0.146885
0.146899
0.146905
0.146905
0.146899
0.146887
0.146869
0.146847
0.14682
0.14679
0.146758
0.146726
0.146693
0.146662
0.146633
0.146608
0.146587
0.146572
0.146564
0.146562
0.146566
0.146576
0.14659
0.146608
0.146628
0.146649
0.146668
0.146684
0.146696
0.146699
0.14669
0.146667
0.146629
0.146576
0.146506
0.146422
0.146327
0.146224
0.146121
0.146024
0.145941
0.145882
0.145855
0.145877
0.145964
0.146138
0.146419
0.146834
0.147414
0.148193
0.1492
0.15046
0.152001
0.153855
0.15605
0.158609
0.161626
0.165464
0.171086
0.186114
0.246281
0.575163
1.07167
1.07241
1.00824
0.904177
0.705799
0.605365
0.528399
0.435106
0.347829
0.262183
0.197402
6.81046
1.40076
0.529659
0.295308
0.210475
0.174368
0.15799
0.150596
0.147423
0.146171
0.145735
0.145615
0.145612
0.145649
0.145701
0.145761
0.145826
0.145894
0.145966
0.146041
0.146119
0.146198
0.146279
0.146361
0.146443
0.146524
0.146604
0.146683
0.146758
0.146831
0.146899
0.146962
0.147019
0.14707
0.147115
0.147151
0.14718
0.1472
0.147211
0.147214
0.147208
0.147194
0.147173
0.147146
0.147113
0.147076
0.147036
0.146993
0.14695
0.146908
0.146868
0.146831
0.1468
0.146774
0.146755
0.146743
0.146738
0.14674
0.146749
0.146763
0.146782
0.146803
0.146825
0.146846
0.146866
0.14688
0.146884
0.146876
0.146854
0.146816
0.14676
0.146689
0.146602
0.146503
0.146396
0.146288
0.146187
0.146101
0.14604
0.146018
0.146054
0.146169
0.146387
0.14673
0.147228
0.147906
0.148788
0.149901
0.151276
0.152951
0.154967
0.157368
0.160205
0.163634
0.167893
0.174218
0.189077
0.251133
0.551072
0.963132
0.963812
0.912226
0.82254
0.672983
0.577691
0.514415
0.421984
0.334242
0.249846
0.192502
6.81065
1.39986
0.529272
0.295135
0.210395
0.174337
0.157987
0.150611
0.147449
0.146206
0.145774
0.145659
0.145662
0.145706
0.145764
0.14583
0.1459
0.145974
0.146051
0.146131
0.146213
0.146297
0.146382
0.146467
0.146553
0.146638
0.146722
0.146804
0.146882
0.146958
0.147029
0.147095
0.147156
0.14721
0.147257
0.147297
0.147329
0.147352
0.147367
0.147373
0.14737
0.147359
0.14734
0.147313
0.147281
0.147244
0.147203
0.147159
0.147114
0.14707
0.147027
0.146988
0.146953
0.146924
0.146901
0.146886
0.146877
0.146876
0.14688
0.14689
0.146905
0.146922
0.14694
0.146958
0.146975
0.146986
0.146988
0.146978
0.146954
0.146916
0.146863
0.146795
0.146714
0.146622
0.146524
0.146426
0.146335
0.146261
0.146216
0.146216
0.146286
0.146441
0.146699
0.147082
0.147616
0.148326
0.149243
0.150396
0.151824
0.153568
0.15568
0.158218
0.161255
0.164977
0.169448
0.176217
0.190657
0.25429
0.52527
0.867563
0.867575
0.853657
0.773853
0.617843
0.530461
0.473483
0.393153
0.322069
0.252565
0.199263
6.81068
1.39891
0.528868
0.294955
0.210313
0.174306
0.157984
0.150625
0.147474
0.146237
0.145807
0.145696
0.145701
0.145748
0.145809
0.145876
0.145948
0.146024
0.146102
0.146183
0.146266
0.146351
0.146436
0.146523
0.146609
0.146695
0.14678
0.146862
0.146942
0.147019
0.147092
0.14716
0.147222
0.147279
0.147328
0.147371
0.147405
0.147432
0.147451
0.147461
0.147462
0.147456
0.147442
0.147421
0.147393
0.14736
0.147323
0.147283
0.147241
0.1472
0.14716
0.147122
0.147089
0.147062
0.14704
0.147025
0.147017
0.147016
0.14702
0.14703
0.147044
0.14706
0.147078
0.147096
0.147112
0.147122
0.147123
0.147113
0.14709
0.147054
0.147004
0.146941
0.146866
0.146782
0.146695
0.146608
0.146531
0.146473
0.146452
0.146487
0.146594
0.146783
0.147073
0.14749
0.148063
0.14882
0.149793
0.151016
0.152528
0.15438
0.156629
0.159343
0.162613
0.166622
0.171254
0.178256
0.192235
0.256401
0.499941
0.784108
0.784074
0.795667
0.711142
0.561453
0.480147
0.4399
0.368783
0.309303
0.246937
0.197659
6.81055
1.39795
0.52846
0.294775
0.210233
0.174277
0.157984
0.150642
0.147503
0.146266
0.145837
0.145729
0.145736
0.145784
0.145846
0.145914
0.145987
0.146063
0.146142
0.146223
0.146307
0.146392
0.146479
0.146566
0.146654
0.146741
0.146827
0.146911
0.146993
0.147072
0.147147
0.147217
0.147282
0.147342
0.147395
0.147441
0.14748
0.14751
0.147533
0.147548
0.147554
0.147553
0.147544
0.147528
0.147506
0.147478
0.147447
0.147412
0.147375
0.147338
0.147302
0.147269
0.14724
0.147216
0.147197
0.147185
0.147179
0.14718
0.147187
0.147198
0.147214
0.147232
0.147251
0.147272
0.147289
0.1473
0.147302
0.147293
0.147273
0.14724
0.147195
0.147137
0.14707
0.146995
0.146918
0.146845
0.146784
0.14675
0.146763
0.146835
0.146974
0.147197
0.147529
0.147995
0.148623
0.149444
0.150491
0.151804
0.153424
0.155406
0.157815
0.160726
0.164238
0.168506
0.173235
0.180337
0.193994
0.257531
0.473979
0.70907
0.709452
0.756475
0.663879
0.503029
0.429647
0.401264
0.340828
0.293675
0.240126
0.196043
6.81022
1.39699
0.528052
0.294597
0.210156
0.174252
0.157989
0.150668
0.147532
0.146293
0.145868
0.145763
0.145772
0.145821
0.145883
0.145952
0.146026
0.146102
0.146182
0.146264
0.146349
0.146435
0.146523
0.146612
0.146701
0.14679
0.146878
0.146965
0.14705
0.147131
0.147209
0.147283
0.147352
0.147416
0.147473
0.147524
0.147567
0.147603
0.147632
0.147652
0.147664
0.147669
0.147666
0.147656
0.14764
0.147618
0.147593
0.147564
0.147534
0.147503
0.147473
0.147446
0.147421
0.147402
0.147387
0.147379
0.147377
0.147382
0.147391
0.147406
0.147424
0.147445
0.147468
0.147492
0.147511
0.147525
0.147529
0.147524
0.147507
0.147478
0.147438
0.147388
0.147329
0.147265
0.147201
0.147143
0.147104
0.147102
0.147152
0.147262
0.147438
0.147704
0.148086
0.148609
0.149303
0.1502
0.151337
0.152754
0.154498
0.156627
0.159212
0.162333
0.166096
0.170584
0.175322
0.182522
0.196066
0.257997
0.44768
0.640474
0.641808
0.720748
0.616707
0.440686
0.379971
0.361681
0.312029
0.275818
0.230374
0.191984
6.80971
1.39603
0.527648
0.294425
0.210085
0.174233
0.158006
0.150702
0.147558
0.14632
0.145901
0.1458
0.145812
0.145861
0.145924
0.145994
0.146068
0.146146
0.146226
0.14631
0.146396
0.146484
0.146574
0.146664
0.146756
0.146847
0.146938
0.147027
0.147115
0.1472
0.147282
0.147361
0.147434
0.147503
0.147565
0.147622
0.147671
0.147713
0.147748
0.147775
0.147794
0.147806
0.14781
0.147808
0.147799
0.147785
0.147767
0.147746
0.147723
0.1477
0.147678
0.147657
0.14764
0.147626
0.147618
0.147616
0.147619
0.147628
0.147642
0.147661
0.147683
0.147708
0.147736
0.147763
0.147786
0.147803
0.147812
0.147811
0.1478
0.147777
0.147744
0.147702
0.147653
0.147602
0.147552
0.147515
0.147504
0.147537
0.147628
0.147778
0.147998
0.148313
0.148752
0.149342
0.150112
0.151098
0.152337
0.153872
0.155754
0.158046
0.160823
0.16417
0.168188
0.172854
0.177574
0.184883
0.198497
0.257885
0.421392
0.577397
0.580913
0.690712
0.576358
0.382152
0.332413
0.321337
0.281497
0.256147
0.219321
0.18722
6.809
1.39507
0.527247
0.294257
0.21002
0.174227
0.158052
0.150728
0.147574
0.146348
0.145939
0.145842
0.145856
0.145907
0.145971
0.146041
0.146116
0.146195
0.146277
0.146362
0.146449
0.146539
0.146631
0.146724
0.146817
0.146912
0.147005
0.147099
0.14719
0.14728
0.147366
0.147449
0.147529
0.147603
0.147672
0.147735
0.147791
0.147841
0.147883
0.147918
0.147946
0.147966
0.14798
0.147986
0.147987
0.147982
0.147974
0.147962
0.147949
0.147935
0.147921
0.14791
0.147901
0.147896
0.147896
0.147901
0.147912
0.147928
0.147948
0.147973
0.148001
0.148033
0.148067
0.148099
0.148126
0.148148
0.148162
0.148168
0.148163
0.148148
0.148124
0.148092
0.148055
0.148018
0.147987
0.147974
0.147995
0.148067
0.1482
0.148395
0.148665
0.149037
0.14954
0.150204
0.151061
0.152147
0.1535
0.155167
0.1572
0.15967
0.162654
0.166241
0.170509
0.17525
0.180024
0.187473
0.201295
0.257488
0.396763
0.522476
0.52935
0.663589
0.542
0.330474
0.292435
0.28203
0.252691
0.234558
0.206849
0.181756
6.8081
1.39411
0.526851
0.294095
0.209966
0.174281
0.158088
0.150727
0.147583
0.146378
0.14598
0.14589
0.145906
0.145958
0.146023
0.146094
0.14617
0.14625
0.146333
0.14642
0.146509
0.146601
0.146695
0.146791
0.146887
0.146985
0.147082
0.14718
0.147276
0.14737
0.147462
0.147551
0.147636
0.147717
0.147794
0.147864
0.147929
0.147988
0.148039
0.148084
0.148121
0.148152
0.148176
0.148194
0.148206
0.148213
0.148216
0.148216
0.148214
0.148212
0.14821
0.14821
0.148213
0.148219
0.14823
0.148245
0.148266
0.148291
0.14832
0.148353
0.14839
0.148431
0.148473
0.148512
0.148547
0.148574
0.148594
0.148607
0.148612
0.148607
0.148594
0.148574
0.148552
0.148532
0.148523
0.148538
0.148593
0.148706
0.148882
0.149127
0.149454
0.149889
0.150464
0.151211
0.152163
0.153358
0.154836
0.156644
0.158843
0.161503
0.164711
0.16855
0.173046
0.177751
0.182691
0.190346
0.204477
0.257234
0.375533
0.478453
0.489373
0.638252
0.514139
0.29267
0.260701
0.249777
0.228579
0.214832
0.194554
0.175849
6.807
1.39315
0.526459
0.293941
0.20995
0.174376
0.158101
0.150701
0.14759
0.14641
0.146027
0.145943
0.145962
0.146015
0.146081
0.146153
0.146231
0.146312
0.146397
0.146485
0.146576
0.146671
0.146767
0.146866
0.146966
0.147067
0.147169
0.147271
0.147372
0.147472
0.14757
0.147666
0.147759
0.147848
0.147932
0.148012
0.148087
0.148155
0.148218
0.148274
0.148323
0.148366
0.148403
0.148434
0.148459
0.14848
0.148498
0.148512
0.148525
0.148537
0.14855
0.148565
0.148582
0.148603
0.148628
0.148657
0.148691
0.148728
0.14877
0.148815
0.148863
0.148916
0.148969
0.149019
0.149064
0.149101
0.14913
0.149151
0.149165
0.149173
0.149174
0.14917
0.149165
0.149165
0.149181
0.149226
0.149319
0.149472
0.149694
0.149992
0.150381
0.150887
0.151541
0.152378
0.153432
0.154742
0.156353
0.158312
0.160686
0.16355
0.166994
0.171089
0.175743
0.180405
0.185589
0.193527
0.208078
0.257556
0.358843
0.446526
0.46163
0.61174
0.490718
0.26718
0.236053
0.224472
0.208738
0.197938
0.182962
0.169195
6.8057
1.3922
0.526074
0.293806
0.210077
0.174428
0.158045
0.150661
0.147595
0.146447
0.14608
0.146002
0.146023
0.146078
0.146145
0.146219
0.146297
0.14638
0.146467
0.146557
0.146651
0.146748
0.146848
0.14695
0.147054
0.147159
0.147266
0.147373
0.14748
0.147587
0.147692
0.147795
0.147897
0.147995
0.148089
0.14818
0.148265
0.148346
0.148421
0.14849
0.148554
0.148612
0.148664
0.148711
0.148753
0.148791
0.148825
0.148858
0.148889
0.148919
0.148951
0.148984
0.14902
0.149059
0.149102
0.149149
0.149201
0.149255
0.149313
0.149374
0.149439
0.149508
0.149575
0.149639
0.149697
0.149749
0.149791
0.149824
0.149849
0.14987
0.149888
0.149903
0.14992
0.149944
0.149988
0.150067
0.150197
0.150392
0.150661
0.151015
0.151469
0.15205
0.152789
0.15372
0.154881
0.156311
0.158059
0.160177
0.162734
0.165812
0.169501
0.173825
0.178476
0.183232
0.188728
0.197034
0.212128
0.258801
0.34717
0.426177
0.444861
0.582405
0.469354
0.250814
0.217819
0.205232
0.192849
0.184107
0.173208
0.163277
6.8042
1.39125
0.525696
0.293699
0.210291
0.174452
0.157945
0.150612
0.147603
0.146489
0.146137
0.146066
0.146091
0.146147
0.146216
0.146291
0.146371
0.146455
0.146544
0.146637
0.146733
0.146833
0.146936
0.147042
0.147151
0.147261
0.147373
0.147487
0.147601
0.147714
0.147828
0.14794
0.148051
0.14816
0.148266
0.148368
0.148467
0.148561
0.148651
0.148737
0.148817
0.148892
0.148962
0.149028
0.14909
0.149149
0.149205
0.149259
0.149312
0.149366
0.149421
0.149478
0.149538
0.149601
0.149667
0.149738
0.149812
0.14989
0.14997
0.150052
0.150141
0.15023
0.150317
0.150399
0.150475
0.150544
0.150604
0.150655
0.150697
0.150733
0.150767
0.150804
0.150847
0.150901
0.150977
0.15109
0.151259
0.151496
0.151813
0.152223
0.152745
0.153404
0.154229
0.155257
0.156525
0.158078
0.159965
0.162245
0.16499
0.168288
0.172217
0.176697
0.181304
0.186244
0.19212
0.200879
0.216652
0.261191
0.34033
0.415049
0.436484
0.551273
0.451477
0.240418
0.205665
0.191667
0.181152
0.17364
0.165697
0.159058
6.8025
1.39031
0.52533
0.29368
0.210503
0.174434
0.157822
0.150559
0.147614
0.146536
0.146201
0.146137
0.146165
0.146223
0.146293
0.146369
0.146451
0.146538
0.146629
0.146724
0.146824
0.146927
0.147034
0.147145
0.147258
0.147374
0.147492
0.147613
0.147734
0.147856
0.147979
0.148102
0.148224
0.148344
0.148463
0.14858
0.148694
0.148804
0.148912
0.149015
0.149115
0.149211
0.149304
0.149392
0.149478
0.149562
0.149644
0.149725
0.149806
0.149888
0.149972
0.150059
0.150149
0.150242
0.15034
0.150441
0.150546
0.150653
0.150762
0.150874
0.150993
0.15111
0.151224
0.151331
0.151432
0.151524
0.151606
0.15168
0.151743
0.1518
0.151854
0.151913
0.151983
0.152069
0.152182
0.152335
0.152543
0.152823
0.153188
0.153653
0.154241
0.154976
0.155888
0.157011
0.158386
0.160059
0.162083
0.164525
0.167458
0.170973
0.1751
0.179557
0.184247
0.189445
0.195767
0.205074
0.221666
0.264896
0.338013
0.411566
0.435017
0.521008
0.440079
0.233434
0.197439
0.182908
0.173867
0.167122
0.161039
0.156636
6.80061
1.38938
0.52499
0.293908
0.210606
0.174305
0.157685
0.150508
0.147631
0.146589
0.146271
0.146214
0.146245
0.146305
0.146376
0.146455
0.146538
0.146627
0.146721
0.146819
0.146922
0.14703
0.147141
0.147257
0.147376
0.147498
0.147623
0.147751
0.147882
0.148013
0.148147
0.148281
0.148415
0.14855
0.148684
0.148816
0.148948
0.149078
0.149205
0.149331
0.149453
0.149574
0.149692
0.149809
0.149923
0.150037
0.150151
0.150265
0.15038
0.150498
0.150619
0.150743
0.150871
0.151004
0.15114
0.151281
0.151426
0.151572
0.151721
0.151874
0.152031
0.152186
0.152335
0.152477
0.152609
0.152732
0.152844
0.152946
0.153036
0.153119
0.153198
0.153281
0.153378
0.153497
0.153648
0.153843
0.154094
0.154419
0.154831
0.15535
0.155998
0.156804
0.157797
0.159011
0.160487
0.162274
0.164428
0.167024
0.170138
0.173848
0.178056
0.182467
0.187316
0.192829
0.199659
0.209621
0.227141
0.269909
0.339574
0.414061
0.438888
0.493868
0.435029
0.228075
0.19231
0.177944
0.169829
0.16345
0.158279
0.154851
6.79851
1.38845
0.524682
0.294275
0.210647
0.174107
0.157539
0.15046
0.147654
0.146649
0.146347
0.146297
0.146331
0.146393
0.146466
0.146547
0.146633
0.146724
0.146821
0.146923
0.14703
0.147141
0.147258
0.147379
0.147504
0.147634
0.147767
0.147904
0.148044
0.148186
0.148332
0.148479
0.148628
0.148778
0.148929
0.149081
0.149232
0.149384
0.149535
0.149686
0.149836
0.149985
0.150134
0.150284
0.150433
0.150584
0.150736
0.15089
0.151048
0.15121
0.151376
0.151548
0.151725
0.151907
0.152095
0.152287
0.152483
0.152681
0.152881
0.153089
0.153297
0.153501
0.153698
0.153885
0.154061
0.154225
0.154375
0.154513
0.154638
0.154753
0.154862
0.154973
0.155097
0.155246
0.155432
0.155667
0.155964
0.156335
0.156795
0.157364
0.158067
0.158934
0.159997
0.16129
0.162856
0.164745
0.167016
0.169751
0.173028
0.176866
0.180976
0.185452
0.190507
0.196381
0.203769
0.214503
0.232993
0.276033
0.344278
0.420862
0.446976
0.470016
0.430789
0.225362
0.190906
0.17607
0.168225
0.161916
0.157138
0.154082
6.79622
1.38753
0.524403
0.29471
0.210654
0.173871
0.15739
0.150419
0.147683
0.146715
0.14643
0.146386
0.146423
0.146487
0.146563
0.146646
0.146734
0.146829
0.146929
0.147034
0.147146
0.147262
0.147384
0.147512
0.147644
0.147782
0.147924
0.14807
0.148221
0.148376
0.148535
0.148697
0.148862
0.149031
0.149201
0.149374
0.149549
0.149726
0.149905
0.150085
0.150267
0.150451
0.150637
0.150825
0.151016
0.151211
0.15141
0.151615
0.151824
0.152041
0.152264
0.152496
0.152734
0.152981
0.153233
0.153492
0.153755
0.15402
0.154289
0.154568
0.154843
0.155113
0.155373
0.155621
0.155854
0.156072
0.156273
0.156456
0.156624
0.156778
0.156924
0.157067
0.15722
0.157396
0.157611
0.15788
0.158216
0.158631
0.159138
0.159756
0.160507
0.161423
0.16254
0.163894
0.165529
0.1675
0.169869
0.172716
0.176098
0.179865
0.18393
0.188516
0.193806
0.20007
0.208055
0.219655
0.239071
0.282867
0.350978
0.429315
0.458462
0.454052
0.429524
0.226297
0.192713
0.176785
0.168849
0.162159
0.157298
0.154104
6.79373
1.38661
0.52415
0.295175
0.210643
0.173617
0.157243
0.150385
0.147721
0.146789
0.146519
0.146482
0.146522
0.146589
0.146667
0.146752
0.146843
0.146941
0.147045
0.147155
0.147271
0.147393
0.147521
0.147656
0.147796
0.147942
0.148094
0.148252
0.148415
0.148584
0.148758
0.148937
0.149121
0.149309
0.149503
0.1497
0.149902
0.150108
0.150319
0.150534
0.150753
0.150978
0.151207
0.151442
0.151684
0.151932
0.152188
0.152453
0.152727
0.153012
0.153307
0.153613
0.15393
0.154257
0.154594
0.154938
0.155288
0.155641
0.156002
0.156372
0.156737
0.157094
0.157438
0.157766
0.158075
0.158363
0.158628
0.15887
0.159091
0.159292
0.15948
0.15966
0.159844
0.160046
0.160284
0.160575
0.160937
0.161383
0.161928
0.162588
0.16338
0.164335
0.165488
0.166879
0.168556
0.170577
0.17301
0.175917
0.179254
0.182867
0.186945
0.191655
0.197185
0.203846
0.212438
0.224969
0.245246
0.290283
0.359375
0.437551
0.472813
0.449469
0.435136
0.231604
0.19703
0.179731
0.171381
0.163857
0.158425
0.154632
6.79105
1.38571
0.523928
0.295641
0.210619
0.173356
0.157101
0.15036
0.147766
0.146869
0.146614
0.146584
0.146628
0.146697
0.146777
0.146865
0.14696
0.147061
0.147169
0.147284
0.147405
0.147534
0.147669
0.147811
0.14796
0.148116
0.148279
0.14845
0.148627
0.148811
0.149002
0.1492
0.149405
0.149617
0.149836
0.150061
0.150294
0.150534
0.150782
0.151037
0.1513
0.151572
0.151854
0.152145
0.152446
0.15276
0.153085
0.153425
0.153778
0.154146
0.154531
0.154932
0.155348
0.155779
0.156222
0.156676
0.157139
0.157607
0.15809
0.158579
0.159062
0.159533
0.159988
0.160421
0.160828
0.161204
0.161545
0.161852
0.16213
0.162381
0.162614
0.162835
0.163056
0.16329
0.163553
0.163863
0.164236
0.164694
0.165255
0.165936
0.166754
0.167731
0.168903
0.17031
0.171995
0.174021
0.176454
0.179287
0.182402
0.185935
0.190028
0.194846
0.200602
0.207646
0.216838
0.230376
0.251553
0.298563
0.370249
0.443067
0.489471
0.454165
0.443333
0.239228
0.203097
0.184255
0.175237
0.166565
0.160194
0.155439
6.78816
1.38481
0.523924
0.295976
0.21051
0.173094
0.156967
0.150344
0.14782
0.146956
0.146716
0.146692
0.146739
0.146811
0.146894
0.146985
0.147084
0.147189
0.147302
0.147422
0.147549
0.147684
0.147827
0.147978
0.148137
0.148304
0.14848
0.148664
0.148856
0.149058
0.149268
0.149487
0.149716
0.149954
0.150202
0.15046
0.150729
0.151008
0.151298
0.1516
0.151915
0.152243
0.152586
0.152944
0.153318
0.153709
0.154119
0.15455
0.155001
0.155474
0.15597
0.15649
0.157031
0.157594
0.158175
0.158771
0.159379
0.159998
0.160641
0.161285
0.16192
0.162535
0.163115
0.163655
0.164154
0.16461
0.165025
0.165398
0.165735
0.166038
0.166315
0.166575
0.166829
0.167091
0.16738
0.167713
0.168112
0.168595
0.169182
0.169888
0.170708
0.17168
0.172843
0.174237
0.175894
0.177865
0.180125
0.182693
0.185645
0.189093
0.193175
0.198069
0.204017
0.21141
0.221171
0.235755
0.257947
0.307375
0.382244
0.446257
0.495884
0.47092
0.45765
0.249168
0.210577
0.189928
0.179914
0.169906
0.162329
0.156347
6.78508
1.38393
0.524179
0.296149
0.210298
0.172831
0.156843
0.150338
0.147881
0.14705
0.146824
0.146807
0.146857
0.146932
0.147019
0.147113
0.147215
0.147325
0.147443
0.147569
0.147703
0.147845
0.147997
0.148157
0.148327
0.148506
0.148696
0.148895
0.149105
0.149326
0.149557
0.149801
0.150056
0.150324
0.150605
0.1509
0.151209
0.151533
0.151873
0.15223
0.152606
0.153
0.153415
0.153852
0.154313
0.154799
0.155312
0.155854
0.156425
0.157028
0.157664
0.158333
0.159034
0.159764
0.160521
0.1613
0.162096
0.162911
0.163747
0.16456
0.165343
0.166091
0.166798
0.167459
0.168072
0.168633
0.16914
0.169596
0.170002
0.170364
0.170687
0.170981
0.171259
0.171536
0.171829
0.172158
0.172545
0.173011
0.173577
0.174265
0.175096
0.176088
0.177255
0.178596
0.180136
0.181882
0.183896
0.186258
0.189043
0.192368
0.196393
0.201311
0.207395
0.215076
0.225345
0.240958
0.264334
0.316244
0.394038
0.453007
0.500494
0.502963
0.47545
0.261146
0.218785
0.196411
0.184916
0.173459
0.164528
0.157181
6.7818
1.38307
0.524589
0.29622
0.210021
0.172572
0.156731
0.150342
0.147951
0.147151
0.146939
0.146927
0.146982
0.14706
0.14715
0.147248
0.147354
0.147469
0.147593
0.147725
0.147866
0.148017
0.148178
0.148349
0.148531
0.148723
0.148928
0.149144
0.149373
0.149615
0.149871
0.150142
0.150427
0.150729
0.151048
0.151384
0.15174
0.152116
0.152513
0.152934
0.153379
0.153851
0.154352
0.154884
0.155449
0.156049
0.156687
0.157365
0.158086
0.15885
0.15966
0.160517
0.161419
0.162362
0.163342
0.164347
0.165348
0.166356
0.167368
0.168357
0.169315
0.170236
0.171109
0.171927
0.172687
0.173382
0.174009
0.174568
0.17506
0.17549
0.175862
0.176188
0.17648
0.176754
0.177028
0.177323
0.177661
0.178065
0.178556
0.179157
0.179887
0.180765
0.181812
0.183057
0.184496
0.186108
0.187931
0.190077
0.192657
0.1958
0.199698
0.204565
0.210711
0.218599
0.229279
0.245798
0.270506
0.324549
0.403834
0.467323
0.522203
0.549863
0.495163
0.274666
0.227279
0.203531
0.189916
0.176853
0.166454
0.15777
6.77832
1.38224
0.525089
0.296222
0.209702
0.17232
0.156631
0.150357
0.148028
0.147258
0.147059
0.147054
0.147112
0.147194
0.147287
0.14739
0.147501
0.147621
0.147751
0.14789
0.148039
0.148199
0.14837
0.148553
0.148748
0.148955
0.149176
0.149412
0.149662
0.149928
0.150211
0.150511
0.150831
0.151171
0.151532
0.151916
0.152325
0.15276
0.153223
0.153718
0.154246
0.154809
0.155411
0.156056
0.156745
0.157483
0.158273
0.159118
0.160022
0.160987
0.162014
0.163106
0.164258
0.165451
0.166652
0.167854
0.169052
0.170285
0.171519
0.172733
0.173915
0.175055
0.176142
0.177166
0.178117
0.178986
0.179768
0.180461
0.181061
0.181574
0.182004
0.18236
0.182657
0.18291
0.18314
0.183368
0.183618
0.183914
0.184279
0.184735
0.185308
0.186023
0.186891
0.187936
0.189205
0.190681
0.192331
0.194234
0.196554
0.199439
0.203121
0.207843
0.213955
0.221947
0.232935
0.250171
0.276332
0.332072
0.412467
0.488877
0.546604
0.613769
0.516734
0.289779
0.236075
0.211047
0.194796
0.18002
0.168059
0.158146
6.77464
1.38142
0.525643
0.296175
0.209358
0.172075
0.156543
0.15038
0.148113
0.147372
0.147185
0.147186
0.147249
0.147334
0.147431
0.147538
0.147655
0.147781
0.147917
0.148064
0.148222
0.148392
0.148574
0.148769
0.148979
0.149203
0.149442
0.149698
0.149972
0.150264
0.150577
0.150911
0.151269
0.151651
0.15206
0.152498
0.152967
0.153471
0.154011
0.154591
0.155214
0.155885
0.156607
0.157385
0.158223
0.159127
0.160102
0.161152
0.162281
0.163493
0.164786
0.166136
0.167519
0.168927
0.170354
0.171789
0.173234
0.174745
0.176258
0.177755
0.179222
0.180645
0.182009
0.183298
0.1845
0.185599
0.186585
0.187453
0.188196
0.188817
0.189317
0.189707
0.190002
0.190218
0.190376
0.190501
0.190618
0.190755
0.190936
0.191192
0.191558
0.192045
0.192671
0.193462
0.194453
0.195711
0.197176
0.198818
0.200818
0.203359
0.206717
0.211186
0.217153
0.225132
0.236328
0.254131
0.282039
0.339461
0.423016
0.514046
0.569238
0.691528
0.540232
0.306398
0.245628
0.218805
0.199474
0.182977
0.169354
0.158435
6.77076
1.3806
0.526225
0.296094
0.209
0.171841
0.156468
0.150414
0.148205
0.147491
0.147317
0.147324
0.147391
0.14748
0.147582
0.147694
0.147816
0.147948
0.148092
0.148247
0.148414
0.148595
0.148789
0.148999
0.149223
0.149465
0.149725
0.150004
0.150303
0.150625
0.150971
0.151342
0.151742
0.152172
0.152635
0.153134
0.153672
0.154253
0.154881
0.15556
0.156295
0.157091
0.157955
0.158891
0.159909
0.161013
0.162211
0.16351
0.16491
0.166383
0.167908
0.169482
0.171108
0.172773
0.174468
0.176185
0.177944
0.179792
0.181652
0.183506
0.185336
0.187121
0.188843
0.190478
0.192007
0.193409
0.194667
0.195767
0.196701
0.197465
0.198059
0.198493
0.198782
0.198943
0.199
0.198981
0.198915
0.198832
0.198768
0.198769
0.198848
0.199029
0.199337
0.199801
0.200452
0.201352
0.202557
0.203932
0.205543
0.207657
0.210576
0.214667
0.220365
0.228213
0.239532
0.257891
0.287846
0.346379
0.438076
0.547434
0.586729
0.780438
0.566883
0.3246
0.256519
0.227189
0.204241
0.185952
0.170553
0.158737
6.76668
1.37979
0.526819
0.295989
0.208635
0.171619
0.156404
0.150456
0.148303
0.147616
0.147454
0.147467
0.147538
0.147632
0.147738
0.147855
0.147983
0.148123
0.148274
0.148438
0.148616
0.148808
0.149016
0.14924
0.149482
0.149743
0.150025
0.150328
0.150656
0.15101
0.151393
0.151806
0.152252
0.152736
0.153259
0.153827
0.154443
0.155113
0.155841
0.156634
0.157499
0.158442
0.159472
0.160597
0.161828
0.163172
0.164635
0.166194
0.167823
0.169522
0.171292
0.173131
0.175041
0.177011
0.179027
0.181082
0.183237
0.185499
0.187792
0.190094
0.192383
0.194632
0.196814
0.198898
0.200854
0.202655
0.204271
0.205681
0.20687
0.207827
0.208551
0.209047
0.20933
0.20942
0.209345
0.209136
0.208826
0.208457
0.208093
0.207747
0.207448
0.207229
0.207121
0.20716
0.207388
0.207833
0.208622
0.209672
0.210864
0.212455
0.214823
0.2184
0.223711
0.231311
0.24268
0.261581
0.29326
0.353872
0.460344
0.586473
0.608977
0.876326
0.599642
0.344261
0.269143
0.235917
0.209318
0.189121
0.171987
0.159083
6.76239
1.37898
0.52741
0.295868
0.208271
0.17141
0.156354
0.150507
0.148408
0.147746
0.147595
0.147614
0.14769
0.147788
0.1479
0.148023
0.148157
0.148304
0.148464
0.148638
0.148827
0.149031
0.149253
0.149494
0.149754
0.150036
0.150342
0.150673
0.151031
0.151421
0.151843
0.152302
0.152801
0.153344
0.153935
0.15458
0.155285
0.156055
0.156898
0.157823
0.158837
0.159952
0.161177
0.162526
0.164006
0.165609
0.167295
0.16907
0.170937
0.172899
0.174955
0.177104
0.179346
0.181677
0.184078
0.18654
0.189188
0.191962
0.194794
0.19766
0.200529
0.20337
0.206143
0.208808
0.211322
0.213643
0.215732
0.217554
0.219084
0.220302
0.221203
0.221788
0.222072
0.222077
0.221835
0.221382
0.220759
0.220053
0.219285
0.218487
0.217699
0.216963
0.216319
0.215811
0.215481
0.215387
0.215576
0.216161
0.216942
0.217894
0.219626
0.222559
0.227354
0.234611
0.245974
0.265237
0.298631
0.363707
0.490312
0.631406
0.645083
0.983404
0.640904
0.364309
0.284404
0.245319
0.215238
0.192797
0.173878
0.159801
6.7579
1.37816
0.527991
0.295735
0.207913
0.171215
0.156314
0.150566
0.148518
0.14788
0.14774
0.147766
0.147846
0.147949
0.148066
0.148195
0.148337
0.148492
0.148661
0.148845
0.149046
0.149264
0.149501
0.149759
0.150039
0.150344
0.150675
0.151036
0.151428
0.151856
0.152322
0.152831
0.153388
0.153997
0.154664
0.155396
0.1562
0.157084
0.158059
0.159134
0.160322
0.161636
0.16309
0.164688
0.166391
0.168193
0.170102
0.172125
0.174266
0.176531
0.178921
0.181434
0.184068
0.186825
0.189684
0.192642
0.195901
0.199307
0.202812
0.206388
0.209996
0.213593
0.217129
0.220547
0.223787
0.226791
0.2295
0.231866
0.233847
0.235413
0.236552
0.237262
0.237555
0.237458
0.237006
0.236241
0.235261
0.234116
0.232829
0.231451
0.230036
0.228637
0.227305
0.226088
0.225042
0.224238
0.223735
0.223633
0.223878
0.224231
0.225172
0.22735
0.231506
0.238367
0.249723
0.269398
0.304907
0.37687
0.52764
0.684247
0.694319
1.09658
0.685203
0.384288
0.301465
0.255029
0.222206
0.197119
0.176453
0.161169
6.7532
1.37732
0.528556
0.295597
0.207563
0.171034
0.156287
0.150633
0.148634
0.148018
0.147889
0.147921
0.148006
0.148115
0.148237
0.148373
0.148522
0.148685
0.148864
0.149059
0.149272
0.149505
0.149758
0.150035
0.150336
0.150665
0.151025
0.151417
0.151846
0.152316
0.15283
0.153394
0.154014
0.154696
0.155447
0.156276
0.157191
0.158205
0.159329
0.160576
0.161964
0.163506
0.165188
0.166976
0.168878
0.170905
0.173066
0.17537
0.177828
0.180445
0.183224
0.186165
0.189262
0.19252
0.195926
0.199502
0.20351
0.207702
0.212052
0.216526
0.221078
0.22565
0.230176
0.234576
0.238768
0.242666
0.246188
0.249264
0.251833
0.253854
0.255303
0.256174
0.256482
0.256254
0.255533
0.254403
0.252986
0.251268
0.249323
0.247212
0.245004
0.24276
0.240543
0.238419
0.23646
0.234741
0.233363
0.232365
0.231944
0.231613
0.231696
0.233014
0.236404
0.242863
0.254246
0.27459
0.313104
0.394417
0.57199
0.751454
0.76402
1.20291
0.72085
0.407442
0.320579
0.26613
0.23035
0.202104
0.179742
0.163233
6.74831
1.3765
0.5291
0.295456
0.207226
0.170868
0.156269
0.150706
0.148753
0.148159
0.14804
0.148078
0.148169
0.148283
0.148412
0.148554
0.148711
0.148883
0.149072
0.149279
0.149506
0.149753
0.150024
0.150321
0.150645
0.151
0.151389
0.151816
0.152284
0.152799
0.153366
0.15399
0.154679
0.155441
0.156285
0.157221
0.158262
0.159421
0.160713
0.162158
0.163768
0.165506
0.167361
0.169346
0.171471
0.173751
0.176198
0.178827
0.181649
0.184675
0.187908
0.19135
0.194993
0.19884
0.202904
0.20729
0.212188
0.217363
0.222782
0.228406
0.234177
0.240021
0.245845
0.251538
0.256985
0.262062
0.26665
0.270647
0.273973
0.276568
0.278398
0.279459
0.27977
0.279358
0.278313
0.276773
0.274749
0.272306
0.269525
0.266489
0.263278
0.259964
0.256627
0.253349
0.250223
0.247345
0.244832
0.242779
0.241394
0.240159