/*--------------------------------*- C++ -*----------------------------------*\
| =========                 |                                                 |
| \\      /  F ield         | OpenFOAM: The Open Source CFD Toolbox           |
|  \\    /   O peration     | Version:  v2106                                 |
|   \\  /    A nd           | Website:  www.openfoam.com                      |
|    \\/     M anipulation  |                                                 |
\*---------------------------------------------------------------------------*/
FoamFile
{
    version     2.0;
    format      ascii;
    arch        "LSB;label=32;scalar=64";
    class       volScalarField;
    location    "1.1";
    object      p;
}
// * * * * * * * * * * * * * * * * * * * * * * * * * * * * * * * * * * * * * //

dimensions      [1 -1 -2 0 0 0 0];

internalField   nonuniform List<scalar> 
29678
(
14642.3
14495.1
14348
14200.8
14053.7
13906.5
13759.4
13612.2
13465.1
13317.9
13170.8
13023.6
12876.5
12729.3
12582.2
12435
12287.9
12140.7
11993.6
11846.4
11699.3
11552.1
11405
11257.8
11110.7
10963.5
10816.4
10669.2
10522.1
10374.9
10227.7
10080.6
9933.42
9786.26
9639.09
9491.92
9344.75
9197.58
9050.4
8903.22
8756.03
8608.85
8461.66
8314.46
8167.27
8020.07
7872.87
7725.66
7578.46
7431.25
7284.04
7136.83
6989.62
6842.4
6695.18
6547.96
6400.73
6253.51
6106.29
5959.06
5811.83
5664.61
5517.38
5370.15
5222.92
5075.69
4928.47
4781.24
4634.02
4486.79
4339.57
4192.35
4045.12
3897.9
3750.68
3603.47
3456.25
3309.03
3161.82
3014.6
2867.38
2720.16
2572.95
2425.73
2278.51
2131.28
1984.05
1836.81
1689.56
1542.31
1395.04
1247.77
1100.48
953.17
805.827
658.389
511.027
362.851
215.512
69.1369
-0.108026
-0.289299
-0.491111
-0.665464
-0.85735
-1.03616
-1.22024
-1.40008
-1.58122
-1.76294
14643.9
14496.8
14349.6
14202.5
14055.3
13908.2
13761
13613.9
13466.7
13319.6
13172.4
13025.3
12878.2
12731
12583.9
12436.7
12289.6
12142.4
11995.3
11848.2
11701
11553.9
11406.7
11259.6
11112.4
10965.2
10818.1
10670.9
10523.7
10376.6
10229.4
10082.2
9935.02
9787.83
9640.63
9493.42
9346.21
9198.99
9051.76
8904.52
8757.28
8610.02
8462.76
8315.48
8168.2
8020.91
7873.61
7726.3
7578.99
7431.66
7284.33
7136.99
6989.64
6842.28
6694.92
6547.55
6400.18
6252.81
6105.43
5958.05
5810.67
5663.28
5515.9
5368.51
5221.12
5073.74
4926.36
4778.98
4631.6
4484.22
4336.85
4189.48
4042.11
3894.75
3747.39
3600.03
3452.67
3305.32
3157.96
3010.6
2863.25
2715.88
2568.51
2421.13
2273.75
2126.36
1978.96
1831.55
1684.13
1536.68
1389.2
1241.7
1094.17
946.59
798.955
651.245
503.522
355.304
207.676
65.2724
-0.109553
-0.28927
-0.488185
-0.662196
-0.850975
-1.03063
-1.21417
-1.39546
-1.57763
-1.76037
14645.6
14498.4
14351.3
14204.1
14057
13909.8
13762.7
13615.5
13468.4
13321.2
13174.1
13027
12879.8
12732.7
12585.6
12438.4
12291.3
12144.2
11997
11849.9
11702.7
11555.6
11408.4
11261.3
11114.1
10967
10819.8
10672.6
10525.4
10378.2
10231
10083.8
9936.62
9789.4
9642.17
9494.92
9347.67
9200.4
9053.12
8905.83
8758.52
8611.2
8463.86
8316.5
8169.13
8021.75
7874.35
7726.94
7579.51
7432.07
7284.61
7137.14
6989.66
6842.16
6694.66
6547.15
6399.63
6252.11
6104.57
5957.04
5809.5
5661.95
5514.41
5366.86
5219.32
5071.78
4924.24
4776.7
4629.17
4481.64
4334.12
4186.6
4039.09
3891.58
3744.08
3596.59
3449.09
3301.6
3154.11
3006.62
2859.12
2711.61
2564.1
2416.57
2269.03
2121.48
1973.92
1826.34
1678.73
1531.09
1383.41
1235.68
1087.9
940.065
792.148
644.158
496.043
347.613
199.6
61.5009
-0.0938525
-0.279207
-0.46883
-0.652542
-0.839599
-1.02356
-1.20803
-1.39158
-1.5752
-1.75898
14647.2
14500.1
14352.9
14205.8
14058.6
13911.5
13764.3
13617.2
13470.1
13322.9
13175.8
13028.7
12881.5
12734.4
12587.3
12440.1
12293
12145.9
11998.7
11851.6
11704.5
11557.3
11410.2
11263
11115.9
10968.7
10821.5
10674.3
10527.1
10379.9
10232.7
10085.5
9938.23
9790.98
9643.72
9496.43
9349.14
9201.82
9054.49
8907.14
8759.77
8612.38
8464.97
8317.54
8170.08
8022.6
7875.1
7727.59
7580.05
7432.49
7284.9
7137.3
6989.69
6842.05
6694.41
6546.75
6399.09
6251.41
6103.72
5956.03
5808.33
5660.62
5512.92
5365.21
5217.51
5069.81
4922.11
4774.42
4626.73
4479.05
4331.38
4183.72
4036.06
3888.41
3740.77
3593.14
3445.51
3297.88
3150.25
3002.62
2854.99
2707.34
2559.69
2412.01
2264.32
2116.62
1968.9
1821.15
1673.36
1525.53
1377.65
1229.7
1081.69
933.606
785.424
637.161
488.725
340.146
191.657
57.6038
-0.0871265
-0.274354
-0.462697
-0.647606
-0.834118
-1.01887
-1.20377
-1.38817
-1.57254
-1.75696
14648.8
14501.7
14354.5
14207.4
14060.3
13913.1
13766
13618.8
13471.7
13324.6
13177.5
13030.3
12883.2
12736.1
12589
12441.8
12294.7
12147.6
12000.5
11853.3
11706.2
11559.1
11411.9
11264.7
11117.6
10970.4
10823.2
10676
10528.8
10381.6
10234.4
10087.1
9939.86
9792.58
9645.28
9497.96
9350.63
9203.27
9055.88
8908.48
8761.04
8613.59
8466.1
8318.59
8171.05
8023.48
7875.88
7728.26
7580.61
7432.92
7285.22
7137.49
6989.74
6841.97
6694.18
6546.37
6398.55
6250.72
6102.87
5955.02
5807.16
5659.29
5511.42
5363.56
5215.69
5067.83
4919.97
4772.12
4624.28
4476.45
4328.63
4180.82
4033.02
3885.23
3737.45
3589.68
3441.92
3294.16
3146.4
2998.63
2850.86
2703.08
2555.29
2407.47
2259.64
2111.79
1963.91
1816
1668.04
1520.02
1371.94
1223.79
1075.55
927.225
778.792
630.27
481.55
332.795
183.819
53.7236
-0.0818092
-0.269217
-0.45642
-0.642539
-0.829044
-1.01468
-1.20018
-1.38531
-1.57034
-1.75531
14650.5
14503.3
14356.2
14209
14061.9
13914.8
13767.6
13620.5
13473.4
13326.3
13179.1
13032
12884.9
12737.8
12590.7
12443.6
12296.4
12149.3
12002.2
11855.1
11707.9
11560.8
11413.6
11266.5
11119.3
10972.1
10825
10677.8
10530.5
10383.3
10236.1
10088.8
9941.5
9794.19
9646.87
9499.51
9352.14
9204.73
9057.3
8909.84
8762.34
8614.82
8467.26
8319.67
8172.05
8024.39
7876.69
7728.96
7581.19
7433.39
7285.56
7137.7
6989.81
6841.9
6693.96
6546
6398.03
6250.04
6102.03
5954.02
5805.99
5657.96
5509.93
5361.89
5213.86
5065.84
4917.82
4769.81
4621.82
4473.83
4325.86
4177.91
4029.97
3882.04
3734.12
3586.22
3438.32
3290.42
3142.53
2994.64
2846.74
2698.83
2550.9
2402.96
2254.99
2107
1958.96
1810.89
1662.76
1514.56
1366.29
1217.94
1069.49
920.934
772.259
623.484
474.487
325.507
176.134
49.8951
-0.0779255
-0.265001
-0.452267
-0.638662
-0.825289
-1.0113
-1.19723
-1.38285
-1.56839
-1.75383
14652.1
14505
14357.8
14210.7
14063.5
13916.4
13769.3
13622.1
13475
13327.9
13180.8
13033.7
12886.6
12739.5
12592.4
12445.3
12298.1
12151
12003.9
11856.8
11709.7
11562.5
11415.4
11268.2
11121.1
10973.9
10826.7
10679.5
10532.3
10385
10237.8
10090.5
9943.16
9795.83
9648.47
9501.09
9353.67
9206.23
9058.74
8911.23
8763.68
8616.09
8468.46
8320.79
8173.08
8025.32
7877.53
7729.69
7581.81
7433.89
7285.93
7137.94
6989.91
6841.85
6693.77
6545.66
6397.52
6249.37
6101.2
5953.02
5804.83
5656.63
5508.42
5360.22
5212.03
5063.84
4915.66
4767.49
4619.34
4471.2
4323.08
4174.98
4026.89
3878.83
3730.77
3582.73
3434.71
3286.69
3138.67
2990.65
2842.63
2694.59
2546.54
2398.47
2250.37
2102.24
1954.06
1805.83
1657.54
1509.18
1360.73
1212.18
1063.52
914.743
765.833
616.807
467.541
318.328
168.547
46.126
-0.0744609
-0.261118
-0.448587
-0.635181
-0.822029
-1.00838
-1.19471
-1.38076
-1.56674
-1.7526
14653.8
14506.6
14359.5
14212.3
14065.2
13918
13770.9
13623.8
13476.7
13329.6
13182.5
13035.4
12888.3
12741.2
12594.1
12447
12299.9
12152.8
12005.7
11858.5
11711.4
11564.3
11417.1
11270
11122.8
10975.6
10828.4
10681.2
10534
10386.8
10239.5
10092.2
9944.85
9797.49
9650.11
9502.69
9355.24
9207.75
9060.22
8912.66
8765.05
8617.39
8469.69
8321.94
8174.14
8026.3
7878.4
7730.46
7582.47
7434.42
7286.34
7138.21
6990.04
6841.84
6693.6
6545.33
6397.04
6248.72
6100.38
5952.03
5803.66
5655.29
5506.92
5358.54
5210.18
5061.82
4913.48
4765.15
4616.84
4468.54
4320.27
4172.03
4023.8
3875.59
3727.41
3579.24
3431.08
3282.94
3134.8
2986.66
2838.52
2690.37
2542.2
2394.01
2245.79
2097.53
1949.21
1800.84
1652.4
1503.87
1355.25
1206.51
1057.66
908.664
759.526
610.249
460.719
311.261
161.061
42.4147
-0.0712502
-0.257512
-0.445365
-0.63207
-0.819172
-1.00581
-1.19249
-1.37892
-1.5653
-1.75157
14655.4
14508.2
14361.1
14213.9
14066.8
13919.7
13772.6
13625.4
13478.3
13331.2
13184.1
13037.1
12890
12742.9
12595.8
12448.7
12301.6
12154.5
12007.4
11860.3
11713.2
11566
11418.9
11271.8
11124.6
10977.4
10830.2
10683
10535.8
10388.5
10241.2
10093.9
9946.56
9799.19
9651.78
9504.33
9356.85
9209.32
9061.74
8914.13
8766.46
8618.74
8470.97
8323.14
8175.26
8027.32
7879.32
7731.27
7583.16
7435
7286.79
7138.52
6990.21
6841.86
6693.46
6545.04
6396.57
6248.09
6099.58
5951.05
5802.51
5653.96
5505.41
5356.86
5208.32
5059.79
4911.27
4762.78
4614.31
4465.86
4317.44
4169.04
4020.68
3872.33
3724.01
3575.72
3427.44
3279.18
3130.92
2982.67
2834.42
2686.16
2537.88
2389.58
2241.24
2092.86
1944.43
1795.92
1647.34
1498.66
1349.87
1200.96
1051.91
902.712
753.35
603.824
454.031
304.318
153.69
38.7563
-0.0681176
-0.254066
-0.442331
-0.629153
-0.816547
-1.00348
-1.19049
-1.37729
-1.56405
-1.75071
14657
14509.9
14362.7
14215.6
14068.4
13921.3
13774.2
13627.1
13480
13332.9
13185.8
13038.7
12891.6
12744.6
12597.5
12450.4
12303.3
12156.2
12009.1
11862
11714.9
11567.8
11420.7
11273.5
11126.4
10979.2
10832
10684.8
10537.6
10390.3
10243
10095.7
9948.31
9800.92
9653.48
9506.01
9358.49
9210.93
9063.31
8915.64
8767.92
8620.14
8472.29
8324.39
8176.42
8028.39
7880.3
7732.14
7583.91
7435.63
7287.28
7138.88
6990.42
6841.91
6693.36
6544.77
6396.14
6247.47
6098.78
5950.08
5801.35
5652.62
5503.89
5355.16
5206.44
5057.73
4909.05
4760.39
4611.75
4463.15
4314.57
4166.03
4017.52
3869.04
3720.59
3572.17
3423.78
3275.4
3127.04
2978.68
2830.33
2681.96
2533.58
2385.18
2236.74
2088.25
1939.7
1791.07
1642.36
1493.54
1344.6
1195.53
1046.3
896.902
747.322
597.549
447.494
297.514
146.448
35.1471
-0.06491
-0.250717
-0.439384
-0.62636
-0.814071
-1.00131
-1.18865
-1.37582
-1.56294
-1.74999
14658.6
14511.5
14364.3
14217.2
14070.1
13922.9
13775.8
13628.7
13481.6
13334.6
13187.5
13040.4
12893.3
12746.3
12599.2
12452.1
12305
12158
12010.9
11863.8
11716.7
11569.6
11422.5
11275.3
11128.2
10981
10833.8
10686.6
10539.4
10392.1
10244.8
10097.5
9950.09
9802.68
9655.23
9507.73
9360.18
9212.58
9064.93
8917.21
8769.43
8621.59
8473.68
8325.7
8177.65
8029.53
7881.33
7733.06
7584.72
7436.31
7287.83
7139.29
6990.68
6842.01
6693.3
6544.53
6395.73
6246.88
6098.01
5949.11
5800.2
5651.28
5502.36
5353.45
5204.54
5055.66
4906.79
4757.96
4609.16
4460.39
4311.66
4162.97
4014.32
3865.71
3717.14
3568.6
3420.09
3271.6
3123.13
2974.68
2826.23
2677.78
2529.31
2380.81
2232.27
2083.69
1935.04
1786.31
1637.48
1488.54
1339.46
1190.24
1040.84
891.252
741.461
591.445
441.128
290.876
139.35
31.5915
-0.0614563
-0.247398
-0.436439
-0.623647
-0.81169
-0.999272
-1.18694
-1.37447
-1.56195
-1.74937
14660.2
14513.1
14366
14218.8
14071.7
13924.6
13777.5
13630.4
13483.3
13336.2
13189.1
13042.1
12895
12747.9
12600.9
12453.8
12306.8
12159.7
12012.6
11865.5
11718.5
11571.4
11424.3
11277.1
11130
10982.8
10835.6
10688.4
10541.2
10393.9
10246.6
10099.3
9951.91
9804.49
9657.02
9509.5
9361.93
9214.29
9066.6
8918.84
8771.01
8623.11
8475.13
8327.08
8178.94
8030.73
7882.43
7734.06
7585.6
7437.06
7288.44
7139.75
6990.99
6842.17
6693.28
6544.34
6395.35
6246.32
6097.25
5948.16
5799.06
5649.94
5500.82
5351.71
5202.62
5053.54
4904.5
4755.49
4606.52
4457.59
4308.7
4159.86
4011.07
3862.33
3713.63
3564.98
3416.36
3267.77
3119.21
2970.67
2822.13
2673.6
2525.04
2376.47
2227.85
2079.19
1930.45
1781.63
1632.7
1483.65
1334.45
1185.09
1035.54
885.783
735.791
585.541
434.961
284.439
132.421
28.1079
-0.0576583
-0.244063
-0.433442
-0.620991
-0.809383
-0.997336
-1.18534
-1.37323
-1.56106
-1.74883
14661.9
14514.7
14367.6
14220.4
14073.3
13926.2
13779.1
13632
13484.9
13337.9
13190.8
13043.7
12896.7
12749.6
12602.6
12455.5
12308.5
12161.4
12014.4
11867.3
11720.2
11573.2
11426.1
11279
11131.8
10984.7
10837.5
10690.3
10543.1
10395.8
10248.5
10101.2
9953.78
9806.35
9658.86
9511.33
9363.73
9216.07
9068.34
8920.53
8772.66
8624.7
8476.66
8328.53
8180.32
8032.01
7883.61
7735.13
7586.55
7437.88
7289.12
7140.29
6991.37
6842.37
6693.31
6544.19
6395.01
6245.78
6096.52
5947.23
5797.91
5648.59
5499.27
5349.96
5200.66
5051.4
4902.16
4752.97
4603.82
4454.72
4305.68
4156.7
4007.77
3858.9
3710.08
3561.31
3412.59
3263.91
3115.26
2966.64
2818.03
2669.42
2520.8
2372.16
2223.48
2074.74
1925.94
1777.04
1628.03
1478.89
1329.6
1180.12
1030.43
880.517
730.34
579.868
429.028
278.249
125.701
24.7286
-0.0535521
-0.240715
-0.430393
-0.618391
-0.807154
-0.995501
-1.18385
-1.37208
-1.56025
-1.74836
14663.4
14516.3
14369.2
14222
14074.9
13927.8
13780.7
13633.6
13486.6
13339.5
13192.4
13045.4
12898.4
12751.3
12604.3
12457.3
12310.2
12163.2
12016.1
11869.1
11722
11575
11427.9
11280.8
11133.7
10986.5
10839.4
10692.2
10545
10397.7
10250.4
10103.1
9955.69
9808.25
9660.76
9513.21
9365.59
9217.9
9070.14
8922.3
8774.38
8626.37
8478.26
8330.07
8181.77
8033.38
7884.88
7736.28
7587.58
7438.78
7289.89
7140.89
6991.81
6842.64
6693.4
6544.08
6394.71
6245.28
6095.81
5946.3
5796.77
5647.24
5497.7
5348.18
5198.67
5049.2
4899.77
4750.39
4601.06
4451.8
4302.6
4153.46
4004.4
3855.4
3706.46
3557.59
3408.77
3260.01
3111.28
2962.58
2813.9
2665.24
2516.56
2367.87
2219.14
2070.36
1921.5
1772.55
1623.48
1474.27
1324.9
1175.33
1025.53
875.481
725.14
574.465
423.375
272.367
119.247
21.4952
-0.0492695
-0.23739
-0.427331
-0.615858
-0.80502
-0.993765
-1.18247
-1.37103
-1.55952
-1.74794
14665
14517.9
14370.7
14223.6
14076.5
13929.4
13782.3
13635.2
13488.2
13341.1
13194.1
13047.1
12900
12753
12606
12459
12312
12164.9
12017.9
11870.9
11723.8
11576.8
11429.7
11282.6
11135.5
10988.4
10841.3
10694.1
10546.9
10399.6
10252.4
10105
9957.65
9810.21
9662.71
9515.15
9367.52
9219.81
9072.02
8924.15
8776.18
8628.12
8479.96
8331.7
8183.32
8034.84
7886.25
7737.54
7588.71
7439.78
7290.74
7141.59
6992.34
6842.99
6693.55
6544.04
6394.46
6244.81
6095.12
5945.39
5795.64
5645.87
5496.11
5346.36
5196.64
5046.96
4897.32
4747.75
4598.23
4448.79
4299.43
4150.15
4000.95
3851.82
3702.78
3553.8
3404.9
3256.05
3107.25
2958.49
2809.76
2661.05
2512.34
2363.61
2214.84
2066.03
1917.14
1768.16
1619.05
1469.8
1320.37
1170.74
1020.86
870.702
720.225
569.374
418.049
266.861
113.133
18.4578
-0.0449952
-0.234141
-0.42432
-0.613433
-0.803008
-0.992146
-1.1812
-1.37009
-1.55887
-1.74757
14666.6
14519.5
14372.3
14225.2
14078.1
13931
13783.9
13636.9
13489.8
13342.8
13195.7
13048.7
12901.7
12754.7
12607.7
12460.7
12313.7
12166.7
12019.7
11872.7
11725.7
11578.6
11431.6
11284.5
11137.4
10990.3
10843.2
10696.1
10548.9
10401.6
10254.4
10107
9959.66
9812.23
9664.73
9517.16
9369.52
9221.8
9073.98
8926.08
8778.08
8629.97
8481.76
8333.43
8184.98
8036.41
7887.72
7738.9
7589.95
7440.88
7291.69
7142.38
6992.95
6843.42
6693.78
6544.06
6394.25
6244.38
6094.46
5944.49
5794.5
5644.49
5494.49
5344.51
5194.56
5044.65
4894.8
4745.02
4595.32
4445.7
4296.17
4146.74
3997.4
3848.16
3699
3549.93
3400.94
3252.03
3103.17
2954.36
2805.6
2656.85
2508.11
2359.36
2210.59
2061.76
1912.86
1763.87
1614.75
1465.48
1316.03
1166.36
1016.44
866.21
715.636
564.647
413.106
261.816
107.457
15.6707
-0.0410798
-0.230976
-0.421445
-0.611166
-0.801162
-0.990691
-1.18009
-1.36927
-1.55831
-1.74725
14668.2
14521
14373.9
14226.7
14079.6
13932.6
13785.5
13638.5
13491.4
13344.4
13197.4
13050.4
12903.4
12756.4
12609.4
12462.4
12315.4
12168.4
12021.5
11874.5
11727.5
11580.5
11433.4
11286.4
11139.4
10992.3
10845.2
10698
10550.9
10403.6
10256.4
10109.1
9961.73
9814.3
9666.81
9519.24
9371.6
9223.86
9076.04
8928.11
8780.08
8631.93
8483.66
8335.27
8186.75
8038.1
7889.31
7740.38
7591.31
7442.1
7292.75
7143.27
6993.66
6843.93
6694.09
6544.15
6394.11
6244
6093.83
5943.61
5793.36
5643.1
5492.84
5342.61
5192.41
5042.27
4892.2
4742.21
4592.3
4442.5
4292.81
4143.22
3993.75
3844.38
3695.12
3545.97
3396.9
3247.93
3099.02
2950.18
2801.39
2652.63
2503.88
2355.13
2206.36
2057.54
1908.66
1759.68
1610.58
1461.33
1311.88
1162.22
1012.28
862.044
711.435
560.374
408.662
257.372
102.369
13.1968
-0.0376565
-0.227463
-0.418826
-0.60911
-0.799549
-0.989464
-1.17918
-1.3686
-1.55785
-1.74697
14669.7
14522.6
14375.4
14228.3
14081.2
13934.1
13787.1
13640
13493
13346
13199
13052
12905
12758.1
12611.1
12464.1
12317.2
12170.2
12023.2
11876.3
11729.3
11582.3
11435.3
11288.3
11141.3
10994.2
10847.2
10700
10552.9
10405.7
10258.5
10111.2
9963.85
9816.44
9668.96
9521.4
9373.76
9226.02
9078.18
8930.24
8782.18
8634
8485.69
8337.24
8188.65
8039.92
7891.03
7741.99
7592.79
7443.44
7293.94
7144.29
6994.49
6844.55
6694.49
6544.31
6394.03
6243.67
6093.23
5942.74
5792.22
5641.68
5491.16
5340.65
5190.2
5039.81
4889.5
4739.28
4589.17
4439.18
4289.31
4139.57
3989.96
3840.48
3691.13
3541.89
3392.76
3243.74
3094.8
2945.94
2797.13
2648.37
2499.64
2350.91
2202.16
2053.38
1904.53
1755.6
1606.54
1457.34
1307.95
1158.33
1008.44
858.233
707.644
556.585
404.746
253.58
98.0298
11.105
-0.0353911
-0.223822
-0.416623
-0.607285
-0.798251
-0.98854
-1.17853
-1.36814
-1.55752
-1.74675
14671.3
14524.1
14377
14229.8
14082.8
13935.7
13788.6
13641.6
13494.6
13347.6
13200.6
13053.6
12906.7
12759.7
12612.8
12465.8
12318.9
12172
12025
11878.1
11731.1
11584.2
11437.2
11290.2
11143.2
10996.2
10849.2
10702.1
10555
10407.8
10260.6
10113.4
9966.04
9818.65
9671.19
9523.65
9376.01
9228.28
9080.44
8932.48
8784.4
8636.19
8487.84
8339.34
8190.69
8041.88
7892.9
7743.75
7594.43
7444.93
7295.27
7145.44
6995.44
6845.29
6695
6544.57
6394.03
6243.39
6092.67
5941.89
5791.07
5640.24
5489.42
5338.63
5187.9
5037.24
4886.68
4736.23
4585.9
4435.71
4285.67
4135.77
3986.03
3836.43
3686.99
3537.68
3388.5
3239.44
3090.48
2941.61
2792.82
2644.08
2495.37
2346.68
2197.99
2049.26
1900.48
1751.61
1602.63
1453.52
1304.21
1154.69
1004.89
854.778
704.279
553.318
401.418
250.503
94.5793
9.47222
-0.0349805
-0.22036
-0.414724
-0.605799
-0.79741
-0.988032
-1.17823
-1.36794
-1.55736
-1.74659
14672.8
14525.6
14378.5
14231.4
14084.3
13937.2
13790.2
13643.2
13496.2
13349.2
13202.2
13055.3
12908.3
12761.4
12614.5
12467.5
12320.6
12173.7
12026.8
11879.9
11733
11586
11439.1
11292.2
11145.2
10998.2
10851.2
10704.2
10557.1
10410
10262.8
10115.6
9968.29
9820.93
9673.49
9525.97
9378.35
9230.63
9082.79
8934.84
8786.75
8638.52
8490.14
8341.59
8192.88
8044
7894.93
7745.67
7596.22
7446.58
7296.75
7146.74
6996.54
6846.16
6695.62
6544.93
6394.11
6243.18
6092.15
5941.06
5789.92
5638.77
5487.63
5336.53
5185.5
5034.55
4883.72
4733.02
4582.46
4432.07
4281.84
4131.79
3981.92
3832.22
3682.68
3533.31
3384.09
3235.01
3086.05
2937.19
2788.43
2639.73
2491.07
2342.44
2193.82
2045.18
1896.49
1747.72
1598.85
1449.85
1300.68
1151.29
1001.65
851.686
701.353
550.604
398.74
248.195
92.1885
8.36686
-0.0240813
-0.215344
-0.412881
-0.604895
-0.797232
-0.988083
-1.17837
-1.36805
-1.55741
-1.74652
14674.3
14527.1
14380
14232.9
14085.8
13938.8
13791.7
13644.7
13497.7
13350.8
13203.8
13056.9
12909.9
12763
12616.1
12469.2
12322.3
12175.5
12028.6
11881.7
11734.8
11587.9
11441
11294.1
11147.2
11000.3
10853.3
10706.3
10559.2
10412.2
10265
10117.9
9970.6
9823.28
9675.88
9528.39
9380.79
9233.09
9085.27
8937.32
8789.23
8640.99
8492.58
8344
8195.24
8046.29
7897.13
7747.77
7598.2
7448.41
7298.41
7148.2
6997.79
6847.17
6696.38
6545.41
6394.28
6243.03
6091.67
5940.24
5788.76
5637.26
5485.78
5334.34
5182.98
5031.73
4880.6
4729.63
4578.84
4428.23
4277.81
4127.6
3977.6
3827.8
3678.19
3528.77
3379.52
3230.43
3081.48
2932.66
2783.94
2635.3
2486.72
2338.19
2189.66
2041.13
1892.55
1743.92
1595.19
1446.34
1297.34
1148.13
998.692
848.955
698.864
548.446
396.758
246.668
90.9432
7.83912
-0.0128616
-0.21447
-0.412437
-0.605417
-0.79807
-0.988893
-1.17907
-1.36855
-1.55768
-1.74654
14675.8
14528.6
14381.5
14234.4
14087.3
13940.3
13793.2
13646.3
13499.3
13352.3
13205.4
13058.5
12911.6
12764.7
12617.8
12470.9
12324.1
12177.2
12030.4
11883.5
11736.7
11589.8
11443
11296.1
11149.2
11002.3
10855.4
10708.4
10561.4
10414.4
10267.3
10120.2
9972.98
9825.71
9678.35
9530.89
9383.34
9235.66
9087.87
8939.94
8791.85
8643.61
8495.19
8346.58
8197.78
8048.77
7899.54
7750.07
7600.38
7450.44
7300.27
7149.86
6999.22
6848.36
6697.28
6546.01
6394.56
6242.97
6091.25
5939.44
5787.58
5635.7
5483.84
5332.04
5180.32
5028.73
4877.29
4726.04
4574.98
4424.15
4273.55
4123.18
3973.05
3823.15
3673.48
3524.02
3374.76
3225.68
3076.76
2927.99
2779.34
2630.79
2482.31
2333.89
2185.48
2037.08
1888.66
1740.18
1591.63
1442.97
1294.17
1145.2
996.011
846.566
696.798
546.811
395.485
245.899
90.9033
7.87217
-0.0208709
-0.219305
-0.415169
-0.608072
-0.800204
-0.990617
-1.1804
-1.36947
-1.55821
-1.74667
14677.2
14530.1
14382.9
14235.8
14088.8
13941.8
13794.7
13647.8
13500.8
13353.9
13206.9
13060
12913.2
12766.3
12619.4
12472.6
12325.8
12178.9
12032.1
11885.3
11738.5
11591.7
11444.9
11298.1
11151.2
11004.4
10857.5
10710.6
10563.7
10416.7
10269.7
10122.6
9975.43
9828.21
9680.9
9533.5
9385.98
9238.36
9090.6
8942.69
8794.63
8646.4
8497.97
8349.35
8200.52
8051.45
7902.15
7752.59
7602.78
7452.7
7302.35
7151.73
7000.86
6849.73
6698.35
6546.76
6394.96
6242.99
6090.88
5938.67
5786.39
5634.09
5481.81
5329.6
5177.49
5025.54
4873.76
4722.2
4570.87
4419.8
4269
4118.47
3968.22
3818.23
3668.51
3519.02
3369.77
3220.72
3071.86
2923.17
2774.61
2626.17
2477.82
2329.53
2181.28
2033.04
1884.79
1736.5
1588.15
1439.71
1291.15
1142.45
993.579
844.487
695.121
545.638
394.887
245.83
92.0227
8.47477
-0.0314824
-0.22766
-0.420586
-0.612657
-0.803625
-0.993283
-1.18237
-1.37081
-1.55898
-1.7469
14678.6
14531.5
14384.4
14237.3
14090.2
13943.2
13796.2
13649.3
13502.3
13355.4
13208.5
13061.6
12914.7
12767.9
12621.1
12474.3
12327.5
12180.7
12033.9
11887.1
11740.4
11593.6
11446.8
11300
11153.3
11006.5
10859.7
10712.8
10565.9
10419
10272.1
10125
9977.95
9830.79
9683.54
9536.2
9388.74
9241.17
9093.46
8945.6
8797.57
8649.36
8500.95
8352.32
8203.47
8054.36
7905
7755.36
7605.43
7455.2
7304.67
7153.84
7002.72
6851.31
6699.62
6547.67
6395.49
6243.12
6090.58
5937.91
5785.17
5632.41
5479.67
5327.01
5174.48
5022.12
4869.97
4718.07
4566.45
4415.13
4264.13
4113.44
3963.07
3813.01
3663.24
3513.76
3364.53
3215.54
3066.76
2918.17
2769.73
2621.43
2473.23
2325.1
2177.02
2028.97
1880.92
1732.85
1584.73
1436.54
1288.26
1139.87
991.349
842.663
693.774
544.837
394.858
246.334
94.0398
9.58805
-0.0409499
-0.23903
-0.427568
-0.618792
-0.80811
-0.996771
-1.18491
-1.37254
-1.55997
-1.74722
14680.1
14532.9
14385.8
14238.7
14091.7
13944.7
13797.7
13650.7
13503.8
13356.9
13210
13063.1
12916.3
12769.5
12622.7
12475.9
12329.1
12182.4
12035.7
11888.9
11742.2
11595.5
11448.8
11302
11155.3
11008.6
10861.8
10715
10568.2
10421.4
10274.5
10127.5
9980.53
9833.44
9686.27
9539
9391.61
9244.11
9096.46
8948.65
8800.68
8652.5
8504.12
8355.51
8206.65
8057.52
7908.1
7758.38
7608.35
7457.98
7307.27
7156.22
7004.84
6853.13
6701.1
6548.78
6396.19
6243.36
6090.34
5937.18
5783.93
5630.65
5477.39
5324.23
5171.22
5018.42
4865.86
4713.6
4561.67
4410.09
4258.87
4108.03
3957.55
3807.43
3657.64
3508.17
3359
3210.09
3061.43
2912.97
2764.68
2616.54
2468.52
2320.58
2172.71
2024.87
1877.05
1729.21
1581.34
1433.43
1285.46
1137.41
989.266
841.026
692.667
544.314
395.229
247.278
96.7534
11.1336
-0.0504955
-0.252973
-0.435338
-0.626683
-0.813684
-1.00096
-1.18793
-1.3746
-1.56117
-1.74761
14681.4
14534.3
14387.2
14240.1
14093.1
13946.1
13799.1
13652.2
13505.2
13358.4
13211.5
13064.7
12917.8
12771.1
12624.3
12477.5
12330.8
12184.1
12037.4
11890.7
11744
11597.4
11450.7
11304
11157.4
11010.7
10864
10717.3
10570.6
10423.8
10277
10130.1
9983.17
9836.17
9689.08
9541.9
9394.6
9247.17
9099.61
8951.87
8803.96
8655.85
8507.51
8358.93
8210.08
8060.94
7911.49
7761.71
7611.57
7461.06
7310.18
7158.91
7007.26
6855.23
6702.84
6550.11
6397.06
6243.74
6090.18
5936.46
5782.64
5628.77
5474.95
5321.23
5167.68
5014.38
4861.38
4708.72
4556.46
4404.6
4253.18
4102.18
3951.6
3801.44
3651.65
3502.23
3353.15
3204.36
3055.83
2907.54
2759.44
2611.5
2463.68
2315.96
2168.32
2020.72
1873.14
1725.57
1577.98
1430.36
1282.7
1135.01
987.263
839.485
691.678
543.936
395.821
248.532
99.9646
13.0023
-0.063044
-0.266435
-0.44425
-0.635017
-0.819387
-1.00549
-1.19121
-1.37685
-1.5625
-1.74808
14682.8
14535.7
14388.5
14241.5
14094.4
13947.5
13800.5
13653.6
13506.7
13359.8
13213
13066.2
12919.4
12772.6
12625.9
12479.2
12332.5
12185.8
12039.1
11892.5
11745.9
11599.3
11452.6
11306
11159.4
11012.8
10866.2
10719.6
10572.9
10426.2
10279.5
10132.7
9985.88
9838.98
9691.98
9544.9
9397.7
9250.37
9102.9
8955.26
8807.44
8659.4
8511.13
8362.6
8213.78
8064.65
7915.18
7765.35
7615.13
7464.49
7313.44
7161.94
7010.01
6857.65
6704.87
6551.69
6398.13
6244.26
6090.12
5935.77
5781.3
5626.78
5472.3
5317.94
5163.8
5009.95
4856.45
4703.36
4550.74
4398.59
4246.95
4095.81
3945.16
3794.97
3645.23
3495.89
3346.92
3198.29
3049.95
2901.86
2753.98
2606.27
2458.7
2311.23
2163.84
2016.51
1869.2
1721.91
1574.61
1427.29
1279.97
1132.62
985.274
837.954
690.693
543.568
396.423
249.898
103.244
14.9878
-0.0797223
-0.280638
-0.454889
-0.643469
-0.825443
-1.01025
-1.1946
-1.37916
-1.56386
-1.74859
14684.1
14537
14389.9
14242.8
14095.8
13948.8
13801.9
13654.9
13508.1
13361.2
13214.4
13067.6
12920.9
12774.1
12627.4
12480.7
12334.1
12187.5
12040.8
11894.3
11747.7
11601.1
11454.6
11308
11161.5
11015
10868.4
10721.9
10575.3
10428.7
10282.1
10135.4
9988.65
9841.85
9694.97
9548
9400.91
9253.7
9106.35
8958.82
8811.1
8663.16
8514.98
8366.53
8217.77
8068.67
7919.21
7769.35
7619.06
7468.31
7317.08
7165.36
7013.14
6860.42
6707.22
6553.55
6399.45
6244.96
6090.15
5935.1
5779.9
5624.63
5469.41
5314.34
5159.51
5005.04
4850.98
4697.42
4544.41
4391.97
4240.12
4088.85
3938.14
3787.97
3638.3
3489.07
3340.29
3191.86
3043.75
2895.9
2748.28
2600.84
2453.55
2306.36
2159.26
2012.22
1865.2
1718.21
1571.21
1424.21
1277.21
1130.2
983.237
836.349
689.599
543.067
396.779
251.051
105.992
16.8259
-0.108136
-0.29341
-0.467118
-0.651489
-0.831582
-1.01484
-1.19783
-1.38137
-1.56519
-1.74912
14685.4
14538.3
14391.2
14244.1
14097.1
13950.1
13803.2
13656.3
13509.4
13362.6
13215.8
13069
12922.3
12775.6
12628.9
12482.3
12335.7
12189.1
12042.5
11896
11749.5
11603
11456.5
11310
11163.6
11017.1
10870.6
10724.2
10577.7
10431.2
10284.7
10138.1
9991.48
9844.79
9698.04
9551.19
9404.24
9257.17
9109.94
8962.55
8814.96
8667.15
8519.09
8370.73
8222.06
8073.03
7923.6
7773.73
7623.4
7472.55
7321.17
7169.23
7016.7
6863.61
6709.95
6555.75
6401.04
6245.87
6090.32
5934.46
5778.42
5622.29
5466.22
5310.32
5154.72
4999.54
4844.87
4690.78
4537.36
4384.61
4232.56
4081.18
3930.46
3780.35
3630.8
3481.79
3333.2
3185.02
3037.18
2889.63
2742.31
2595.19
2448.22
2301.35
2154.57
2007.84
1861.14
1714.46
1567.77
1421.08
1274.39
1127.72
981.098
834.588
688.281
542.258
396.663
251.622
107.927
18.2705
-0.135021
-0.304563
-0.478774
-0.658503
-0.837251
-1.0189
-1.20073
-1.38336
-1.5664
-1.74965
14686.7
14539.5
14392.4
14245.4
14098.4
13951.4
13804.5
13657.6
13510.8
13364
13217.2
13070.4
12923.7
12777.1
12630.4
12483.8
12337.3
12190.7
12044.2
11897.7
11751.2
11604.8
11458.4
11312
11165.6
11019.2
10872.9
10726.5
10580.1
10433.7
10287.3
10140.8
9994.35
9847.8
9701.18
9554.48
9407.68
9260.76
9113.69
8966.46
8819.03
8671.37
8523.45
8375.23
8226.68
8077.74
7928.37
7778.54
7628.19
7477.27
7325.75
7173.59
7020.76
6867.27
6713.13
6558.35
6402.97
6247.03
6090.62
5933.85
5776.83
5619.72
5462.67
5305.82
5149.33
4993.34
4837.96
4683.3
4529.44
4376.38
4224.14
4072.69
3922
3772
3622.66
3473.88
3325.6
3177.74
3030.23
2883.03
2736.07
2589.31
2442.69
2296.19
2149.76
2003.38
1857.01
1710.65
1564.28
1417.9
1271.52
1125.13
978.812
832.607
686.645
541.001
395.909
251.351
108.644
19.0651
-0.14562
-0.313017
-0.486947
-0.66392
-0.841731
-1.02207
-1.20302
-1.38497
-1.56742
-1.75016
14687.9
14540.7
14393.6
14246.6
14099.6
13952.7
13805.7
13658.9
13512.1
13365.3
13218.5
13071.8
12925.1
12778.5
12631.9
12485.3
12338.8
12192.3
12045.8
11899.4
11753
11606.6
11460.3
11313.9
11167.6
11021.4
10875.1
10728.8
10582.5
10436.2
10289.9
10143.6
9997.26
9850.86
9704.39
9557.85
9411.22
9264.47
9117.59
8970.54
8823.29
8675.82
8528.08
8380.03
8231.63
8082.83
7933.57
7783.81
7633.47
7482.51
7330.88
7178.51
7025.39
6871.49
6716.83
6561.42
6405.28
6248.47
6091.09
5933.26
5775.12
5616.86
5458.66
5300.7
5143.17
4986.26
4830.09
4674.8
4520.47
4367.11
4214.71
4063.24
3912.64
3762.84
3613.78
3465.34
3317.43
3169.96
3022.87
2876.08
2729.53
2583.18
2436.97
2290.87
2144.83
1998.82
1852.82
1706.8
1560.75
1414.67
1268.57
1122.44
976.353
830.367
684.618
539.18
394.339
250.025
107.774
18.9215
-0.150689
-0.319044
-0.492313
-0.66757
-0.844725
-1.02417
-1.20458
-1.38609
-1.56817
-1.75061
14689
14541.9
14394.8
14247.8
14100.8
13953.9
13807
13660.1
13513.3
13366.5
13219.8
13073.1
12926.5
12779.9
12633.3
12486.8
12340.3
12193.8
12047.4
11901.1
11754.7
11608.4
11462.1
11315.9
11169.7
11023.5
10877.3
10731.1
10584.9
10438.8
10292.6
10146.4
10000.2
9853.96
9707.66
9561.3
9414.85
9268.3
9121.62
8974.78
8827.75
8680.5
8532.98
8385.15
8236.95
8088.33
7939.23
7789.57
7639.3
7488.34
7336.62
7184.09
7030.68
6876.35
6721.13
6565.02
6408.04
6250.25
6091.76
5932.7
5773.26
5613.64
5454.08
5294.82
5136.08
4978.1
4821.03
4665.04
4510.22
4356.58
4204.08
4052.66
3902.23
3752.79
3604.1
3456.1
3308.65
3161.67
3015.06
2868.75
2722.68
2576.79
2431.05
2285.39
2139.78
1994.18
1848.57
1702.91
1557.2
1411.41
1265.56
1119.65
973.729
827.859
682.178
536.748
391.857
247.459
105.045
17.615
-0.151282
-0.323123
-0.494926
-0.669264
-0.846041
-1.02503
-1.20524
-1.38661
-1.56859
-1.75097
14690.2
14543
14395.9
14248.9
14101.9
13955
13808.1
13661.3
13514.5
13367.8
13221.1
13074.4
12927.8
12781.2
12634.7
12488.2
12341.8
12195.3
12049
11902.7
11756.4
11610.1
11463.9
11317.8
11171.6
11025.5
10879.4
10733.4
10587.3
10441.3
10295.3
10149.2
10003.2
9857.1
9710.98
9564.81
9418.57
9272.24
9125.79
8979.19
8832.41
8685.41
8538.15
8390.57
8242.63
8094.24
7945.35
7795.86
7645.71
7494.81
7343.06
7190.39
7036.71
6881.97
6726.14
6569.26
6411.35
6252.44
6092.66
5932.17
5771.19
5609.97
5448.8
5287.99
5127.82
4968.58
4810.48
4653.72
4498.41
4344.54
4192.03
4040.77
3890.56
3741.65
3593.52
3446.07
3299.21
3152.81
3006.77
2861.03
2715.5
2570.15
2424.91
2279.75
2134.61
1989.47
1844.28
1699.01
1553.64
1408.14
1262.54
1116.79
970.976
825.124
679.361
533.736
388.488
243.608
100.292
15.0137
-0.145355
-0.325568
-0.494808
-0.668751
-0.845536
-1.02456
-1.20494
-1.38649
-1.56866
-1.75124
14691.2
14544.1
14397
14250