/*--------------------------------*- C++ -*----------------------------------*\
| =========                 |                                                 |
| \\      /  F ield         | OpenFOAM: The Open Source CFD Toolbox           |
|  \\    /   O peration     | Version:  v2106                                 |
|   \\  /    A nd           | Website:  www.openfoam.com                      |
|    \\/     M anipulation  |                                                 |
\*---------------------------------------------------------------------------*/
FoamFile
{
    version     2.0;
    format      ascii;
    arch        "LSB;label=32;scalar=64";
    class       volScalarField;
    location    "1.1";
    object      p_rgh;
}
// * * * * * * * * * * * * * * * * * * * * * * * * * * * * * * * * * * * * * //

dimensions      [1 -1 -2 0 0 0 0];

internalField   nonuniform List<scalar> 
29678
(
0.830042
0.831255
0.833552
0.83619
0.838904
0.841486
0.84388
0.846106
0.848205
0.850192
0.852033
0.853632
0.854765
0.855477
0.856514
0.858175
0.86014
0.862309
0.864717
0.86673
0.867845
0.868212
0.867815
0.866556
0.864328
0.861029
0.856558
0.850815
0.843709
0.835141
0.825012
0.813225
0.799684
0.784315
0.767112
0.748279
0.727386
0.703531
0.676243
0.644656
0.609739
0.572556
0.532481
0.489513
0.443682
0.395029
0.343649
0.289754
0.233805
0.176851
0.118678
0.0568216
-0.00935839
-0.0776675
-0.147198
-0.218151
-0.290597
-0.364412
-0.439417
-0.515422
-0.592216
-0.669573
-0.747274
-0.825096
-0.902822
-0.980252
-1.0572
-1.13351
-1.20903
-1.28366
-1.35729
-1.42985
-1.5013
-1.57162
-1.64085
-1.7091
-1.77652
-1.84332
-1.90977
-1.97613
-2.04274
-2.11031
-2.17921
-2.24801
-2.31763
-2.39416
-2.47879
-2.56827
-2.66417
-2.76867
-2.88233
-3.00659
-3.14553
-3.30507
-3.49795
-3.78583
-3.99753
-5.02386
-5.21288
-0.0440065
-0.0160564
-0.0133925
-0.031267
-0.0216829
-0.0296309
-0.0245064
-0.0246512
-0.020551
-0.0177464
-0.0155288
2.48042
2.48071
2.48153
2.48267
2.48469
2.48784
2.4921
2.49725
2.50303
2.50914
2.51533
2.52168
2.52892
2.5371
2.54551
2.55382
2.56189
2.56967
2.57713
2.58327
2.58727
2.58918
2.58882
2.5859
2.58011
2.57116
2.55875
2.5426
2.52244
2.498
2.46899
2.43513
2.3961
2.35161
2.30143
2.24562
2.18336
2.11331
2.03504
1.94822
1.85244
1.74668
1.63131
1.50739
1.37474
1.23353
1.08381
0.925819
0.760184
0.587416
0.40605
0.213988
0.0128749
-0.193811
-0.404916
-0.62075
-0.841106
-1.06554
-1.2935
-1.52441
-1.75764
-1.99252
-2.22838
-2.46455
-2.70036
-2.93521
-3.16853
-3.39985
-3.62874
-3.85489
-4.07803
-4.29802
-4.51479
-4.72843
-4.9392
-5.14751
-5.35396
-5.55933
-5.76453
-5.9707
-6.17931
-6.39247
-6.61322
-6.841
-7.07408
-7.31526
-7.56473
-7.82379
-8.09911
-8.39716
-8.7203
-9.07206
-9.4581
-9.88494
-10.3704
-10.9302
-11.5031
-12.5714
-13.049
-0.0902386
-0.0175814
-0.013364
-0.028341
-0.0184146
-0.0232561
-0.0189737
-0.0185806
-0.0159298
-0.0141645
-0.0129616
4.12921
4.12922
4.12976
4.13088
4.13367
4.13861
4.14564
4.15432
4.16415
4.1745
4.18564
4.19855
4.21331
4.22891
4.24412
4.25848
4.27207
4.28465
4.2959
4.30511
4.31158
4.31486
4.31447
4.30989
4.3006
4.28609
4.26587
4.23947
4.20643
4.1663
4.11857
4.06275
3.99828
3.92457
3.84103
3.74703
3.6417
3.52408
3.39369
3.25094
3.09441
2.92201
2.73351
2.52861
2.30851
2.07406
1.82502
1.56161
1.28448
0.992407
0.684475
0.362951
0.0304107
-0.312304
-0.664283
-1.02491
-1.39343
-1.76895
-2.15051
-2.53708
-2.92755
-3.32077
-3.71558
-4.11081
-4.50531
-4.89805
-5.28805
-5.67451
-6.05673
-6.43416
-6.80639
-7.17316
-7.53442
-7.89036
-8.2414
-8.58831
-8.93213
-9.27416
-9.61601
-9.95965
-10.3076
-10.6629
-11.029
-11.4077
-11.7954
-12.1954
-12.6073
-13.0382
-13.4961
-13.9881
-14.5193
-15.0952
-15.723
-16.4104
-17.1767
-18.0168
-18.9824
-20.2618
-21.1247
-0.062783
-0.00187799
-0.00330094
-0.00898646
-0.00876085
-0.0118798
-0.0119022
-0.0124355
-0.0120529
-0.0117351
-0.0115765
5.77604
5.77589
5.77632
5.77761
5.7814
5.78838
5.79844
5.81096
5.8251
5.84066
5.85885
5.87986
5.9015
5.92282
5.94377
5.96399
5.98317
6.00088
6.01654
6.02942
6.03873
6.04373
6.04369
6.03787
6.02554
6.00599
5.97852
5.94247
5.89719
5.842
5.77621
5.69907
5.60977
5.50744
5.39115
5.25993
5.11272
4.94847
4.76633
4.56568
4.34561
4.10594
3.84544
3.56213
3.25619
2.92842
2.57984
2.21105
1.82171
1.41012
0.977074
0.526546
0.0606009
-0.420023
-0.914321
-1.42119
-1.93943
-2.46771
-3.00461
-3.54861
-4.09811
-4.65143
-5.20683
-5.76262
-6.31714
-6.86886
-7.41643
-7.95866
-8.49459
-9.02343
-9.54463
-10.0579
-10.5631
-11.0607
-11.5512
-12.0357
-12.5158
-12.9932
-13.4703
-13.95
-14.4357
-14.9309
-15.4391
-15.9623
-16.5002
-17.0531
-17.6254
-18.2254
-18.8625
-19.5446
-20.2786
-21.0719
-21.9324
-22.8693
-23.9014
-25.0144
-26.3
-27.7286
-29.068
-0.0448536
0.00485199
0.00155217
-0.00285291
-0.00382517
-0.00639957
-0.00721809
-0.00817593
-0.00863726
-0.00906856
-0.00955433
7.42062
7.42036
7.4208
7.42239
7.42731
7.4365
7.44981
7.46643
7.48549
7.50791
7.53406
7.56163
7.58915
7.61657
7.64372
7.67012
7.69523
7.71847
7.73909
7.75621
7.7689
7.77618
7.77711
7.77072
7.75608
7.73227
7.69839
7.65358
7.59698
7.52768
7.44477
7.34726
7.23408
7.10408
6.95604
6.7887
6.60075
6.39091
6.15802
5.90109
5.61915
5.31147
4.97714
4.61539
4.225
3.80566
3.35839
2.88354
2.38075
1.84984
1.29253
0.712183
0.110937
-0.509786
-1.14858
-1.80394
-2.47424
-3.15771
-3.85244
-4.55639
-5.2674
-5.98317
-6.7014
-7.41978
-8.13611
-8.84837
-9.55476
-10.2537
-10.9441
-11.6247
-12.295
-12.9546
-13.6035
-14.242
-14.8711
-15.4922
-16.1072
-16.7184
-17.329
-17.9424
-18.5624
-19.1931
-19.838
-20.5
-21.1809
-21.8827
-22.6124
-23.3782
-24.1898
-25.0565
-25.987
-26.9898
-28.074
-29.2499
-30.5335
-31.905
-33.4751
-35.08
-36.9056
-0.0351596
0.0101682
0.0066893
0.00342414
0.00124244
-0.00132558
-0.00302012
-0.0045911
-0.00578022
-0.00687269
-0.00789986
9.06251
9.06222
9.06277
9.06479
9.071
9.08258
9.09936
9.12035
9.14565
9.1758
9.20885
9.24239
9.27626
9.31032
9.34417
9.37721
9.40879
9.43813
9.46433
9.48635
9.50309
9.51338
9.51607
9.51
9.494
9.46696
9.42777
9.37536
9.30862
9.22644
9.12765
9.01102
8.87521
8.7188
8.54029
8.33812
8.11071
7.85651
7.57408
7.26211
6.91944
6.54507
6.13804
5.69737
5.22193
4.71134
4.16548
3.58426
2.96795
2.31738
1.6348
0.92318
0.184924
-0.577974
-1.36363
-2.17008
-2.99523
-3.83681
-4.69237
-5.55928
-6.43473
-7.3158
-8.1995
-9.0829
-9.96324
-10.8379
-11.7048
-12.5618
-13.4075
-14.2406
-15.0603
-15.8662
-16.6583
-17.4371
-18.2037
-18.9598
-19.7077
-20.4503
-21.1912
-21.9343
-22.6839
-23.4445
-24.2202
-25.0152
-25.8336
-26.6787
-27.5603
-28.4861
-29.4663
-30.5113
-31.6312
-32.8359
-34.1355
-35.5412
-37.0665
-38.6914
-40.5375
-42.3676
-44.5907
-0.027652
0.0140445
0.0109048
0.00757671
0.00511926
0.00243003
0.000359493
-0.0016384
-0.00332234
-0.00492455
-0.00642204
10.7012
10.7009
10.7017
10.7042
10.7119
10.7261
10.7465
10.7729
10.8055
10.8429
10.882
10.922
10.9629
11.0041
11.0452
11.0855
11.1242
11.1603
11.1929
11.2206
11.2422
11.2565
11.2619
11.2572
11.2411
11.2121
11.1689
11.1103
11.0349
10.9413
10.8281
10.6939
10.537
10.3558
10.1483
9.91287
9.64749
9.35034
9.01968
8.65387
8.25148
7.81124
7.33196
6.81253
6.25187
5.64918
5.00392
4.31594
3.5859
2.81539
2.00673
1.16264
0.285777
-0.621389
-1.55643
-2.51687
-3.50004
-4.5031
-5.52294
-6.55627
-7.59957
-8.6492
-9.70146
-10.7528
-11.7998
-12.8393
-13.8686
-14.8854
-15.8878
-16.8743
-17.8439
-18.7962
-19.731
-20.6492
-21.5518
-22.4409
-23.319
-24.1897
-25.0567
-25.9246
-26.7982
-27.6825
-28.5829
-29.5047
-30.4537
-31.4362
-32.462
-33.54
-34.6812
-35.8969
-37.1985
-38.5972
-40.1044
-41.7322
-43.4919
-45.3681
-47.4838
-49.5475
-52.1776
-0.0200177
0.0175115
0.0147881
0.011257
0.00860042
0.00568992
0.00327826
0.000886955
-0.00122632
-0.00326744
-0.00519259
12.336
12.3358
12.3368
12.3401
12.3494
12.3663
12.3912
12.4242
12.4642
12.5079
12.5534
12.6005
12.6488
12.6979
12.7469
12.7952
12.8418
12.8855
12.9253
12.9597
12.9872
13.0065
13.0159
13.0139
12.9989
12.9694
12.9239
12.8607
12.7783
12.6751
12.5495
12.3995
12.2234
12.0191
11.7845
11.5175
11.2158
10.8773
10.4998
10.0815
9.62048
9.11519
8.56419
7.96614
7.31986
6.6244
5.87919
5.08418
4.24029
3.34925
2.41333
1.43521
0.417739
-0.636159
-1.72352
-2.84125
-3.98607
-5.15442
-6.34248
-7.54619
-8.76126
-9.98326
-11.2078
-12.4305
-13.6473
-14.8546
-16.0491
-17.2279
-18.3888
-19.53
-20.6503
-21.749
-22.8262
-23.8825
-24.9192
-25.9387
-26.9438
-27.9383
-28.9264
-29.9133
-30.9045
-31.906
-32.9241
-33.9656
-35.0379
-36.1494
-37.3103
-38.5317
-39.825
-41.2025
-42.677
-44.2613
-45.968
-47.8107
-49.7991
-51.9256
-54.3062
-56.6136
-59.6642
-0.0124146
0.0207261
0.0183941
0.014479
0.0117108
0.00854701
0.0058456
0.00310752
0.0006105
-0.00183042
-0.00416408
13.9663
13.9662
13.9676
13.9716
13.9826
14.0026
14.0332
14.0737
14.1204
14.1702
14.2227
14.2775
14.334
14.3915
14.4493
14.5064
14.5617
14.614
14.662
14.7041
14.7388
14.7644
14.7792
14.7813
14.7692
14.7409
14.6948
14.6289
14.5416
14.4308
14.2947
14.1311
13.9379
13.7127
13.4531
13.1566
12.8205
12.4424
12.0198
11.5504
11.032
10.4628
9.8409
9.1648
8.43316
7.64494
6.79958
5.89713
4.9386
3.92578
2.86086
1.74654
0.585901
-0.617733
-1.86085
-3.1397
-4.4503
-5.7883
-7.1491
-8.52776
-9.91916
-11.318
-12.7192
-14.1175
-15.5083
-16.887
-18.2499
-19.5936
-20.9153
-22.2128
-23.4847
-24.7302
-25.9491
-27.1421
-28.3108
-29.4575
-30.5855
-31.6989
-32.8026
-33.9021
-35.004
-36.1153
-37.2433
-38.3963
-39.5832
-40.8141
-42.0996
-43.4541
-44.8888
-46.4177
-48.055
-49.8153
-51.7129
-53.7629
-55.9751
-58.3507
-60.9937
-63.5571
-67.0354
-0.00529239
0.0238596
0.0218399
0.0175126
0.0146282
0.0111722
0.00817686
0.00510588
0.00224056
-0.000578851
-0.00330625
15.5913
15.5913
15.5931
15.5981
15.6109
15.6351
15.6725
15.72
15.7728
15.8295
15.8897
15.9528
16.0182
16.085
16.1523
16.2191
16.2842
16.3461
16.4035
16.4546
16.4978
16.5311
16.5527
16.5608
16.5532
16.5281
16.4835
16.4172
16.3271
16.2112
16.067
15.8923
15.6844
15.4407
15.1585
14.8347
14.4665
14.0509
13.5851
13.0664
12.4923
11.8604
11.1688
10.4155
9.59911
8.71842
7.77283
6.7624
5.68816
4.55193
3.35588
2.10273
0.795841
-0.561069
-1.96392
-3.40828
-4.88939
-6.40206
-7.94079
-9.49975
-11.0729
-12.654
-14.2371
-15.8162
-17.3857
-18.9404
-20.4758
-21.9878
-23.473
-24.9289
-26.3537
-27.7461
-29.106
-30.4341
-31.7321
-33.0025
-34.2489
-35.4759
-36.6888
-37.8942
-39.0992
-40.312
-41.5412
-42.7963
-44.0877
-45.4273
-46.8249
-48.3007
-49.8646
-51.5327
-53.321
-55.246
-57.3244
-59.5729
-62.0034
-64.626
-67.5312
-70.361
-74.2775
0.00102091
0.0270588
0.0251893
0.0204599
0.017421
0.0136477
0.0103426
0.00694327
0.00371503
0.00052857
-0.00258155
17.2103
17.2104
17.2128
17.2187
17.2336
17.2635
17.308
17.362
17.4212
17.4854
17.5539
17.6261
17.7011
17.778
17.8558
17.9333
18.0092
18.082
18.15
18.2115
18.2646
18.3073
18.3376
18.3534
18.3525
18.3327
18.2918
18.2275
18.1373
18.0188
17.8693
17.6862
17.4665
17.2071
16.9049
16.5565
16.1587
15.708
15.2013
14.6354
14.0075
13.3148
12.5549
11.7257
10.8254
9.85264
8.80678
7.68775
6.49655
5.23505
3.9054
2.51042
1.05372
-0.460544
-2.02771
-3.64263
-5.2997
-6.99284
-8.71558
-10.4611
-12.2223
-13.9922
-15.7635
-17.5295
-19.2835
-21.0196
-22.7322
-24.4166
-26.0687
-27.6854
-29.2642
-30.8039
-32.304
-33.7654
-35.1897
-36.5799
-37.9398
-39.2745
-40.5901
-41.8938
-43.1937
-44.499
-45.8195
-47.1659
-48.5501
-49.985
-51.4845
-53.0663
-54.7451
-56.5381
-58.4634
-60.5397
-62.7864
-65.2228
-67.8643
-70.7295
-73.8974
-76.9991
-81.3753
0.0067808
0.0305125
0.0285081
0.0234052
0.0201345
0.0160286
0.0123844
0.00865382
0.00506399
0.00151877
-0.00196185
18.8223
18.8227
18.8257
18.8325
18.8507
18.887
18.9387
18.9988
19.0651
19.1374
19.215
19.2969
19.3824
19.4703
19.5596
19.6489
19.7368
19.8216
19.9017
19.9751
20.0398
20.0937
20.1345
20.1602
20.1682
20.1561
20.1216
20.0619
19.9744
19.8563
19.7046
19.5162
19.2878
19.0158
18.6967
18.3268
17.9022
17.4193
16.8744
16.2639
15.5845
14.833
14.0067
13.103
12.1199
11.0557
9.90963
8.68137
7.37186
5.98303
4.51709
2.9769
1.36637
-0.309899
-2.04662
-3.83791
-5.67726
-7.55765
-9.47154
-11.411
-13.3679
-15.334
-17.3011
-19.2611
-21.2065
-23.1302
-25.0256
-26.8871
-28.7098
-30.4898
-32.2242
-33.9115
-35.551
-37.1436
-38.6912
-40.1969
-41.6651
-43.1014
-44.5125
-45.9063
-47.2921
-48.6799
-50.0807
-51.5065
-52.9706
-54.4875
-56.0732
-57.7451
-59.5229
-61.4244
-63.4702
-65.6817
-68.0814
-70.6921
-73.5339
-76.6341
-80.0645
-83.4361
-88.3036
0.012363
0.0343105
0.0318432
0.0264018
0.0227904
0.0183359
0.0143199
0.0102534
0.00630617
0.00241177
-0.00142429
20.4266
20.4272
20.431
20.439
20.4617
20.5046
20.5633
20.6298
20.7038
20.7849
20.8722
20.9647
21.0615
21.1614
21.2632
21.3655
21.4667
21.565
21.6587
21.7456
21.8237
21.8907
21.9443
21.982
22.0014
21.9997
21.9743
21.9223
21.8407
21.7263
21.5757
21.3854
21.1517
20.8707
20.5382
20.1502
19.7023
19.1904
18.6104
17.9583
17.2302
16.4225
15.532
14.5557
13.4911
12.3363
11.0901
9.75197
8.32274
6.8044
5.19923
3.51011
1.74125
-0.102271
-2.01455
-3.98889
-6.01788
-8.0934
-10.2068
-12.3489
-14.5103
-16.6815
-18.853
-21.0155
-23.1601
-25.2785
-27.363
-29.4069
-31.4043
-33.3506
-35.2424
-37.0777
-38.8558
-40.5775
-42.245
-43.8617
-45.4325
-46.9636
-48.4623
-49.9375
-51.3992
-52.8583
-54.3273
-55.8193
-57.3491
-58.9327
-60.5883
-62.332
-64.191
-66.1822
-68.3291
-70.6564
-73.1902
-75.9577
-78.9847
-82.3071
-85.9967
-89.6255
-95.0235
0.017992
0.0384166
0.0351912
0.0294507
0.0253907
0.0205649
0.0161548
0.0117443
0.00744954
0.00321946
-0.00095291
22.022
22.023
22.0275
22.0372
22.0653
22.1155
22.1807
22.2542
22.3366
22.4272
22.525
22.6289
22.7379
22.8508
22.9663
23.0828
23.1986
23.3119
23.4208
23.523
23.6164
23.6987
23.7672
23.8196
23.853
23.8647
23.8515
23.8105
23.7382
23.631
23.4853
23.297
23.0619
22.7757
22.4337
22.0315
21.5642
21.0271
20.4157
19.7255
18.952
18.0911
17.139
16.0923
14.9479
13.7034
12.3573
10.9089
9.35856
7.70842
5.96086
4.11873
2.18654
0.169817
-1.92486
-4.08995
-6.31703
-8.59683
-10.9194
-13.2741
-15.6503
-18.0368
-20.4228
-22.7973
-25.1501
-27.4714
-29.7522
-31.9844
-34.1613
-36.2773
-38.3284
-40.3123
-42.2281
-44.0767
-45.8605
-47.5834
-49.2507
-50.8692
-52.4469
-53.9936
-55.5201
-57.0385
-58.5623
-60.106
-61.6858
-63.3191
-65.025
-66.8249
-68.7428
-70.8018
-73.0273
-75.4472
-78.0919
-80.9938
-84.1849
-87.7102
-91.6505
-95.5084
-101.478
0.0238122
0.0426993
0.0385167
0.0325132
0.0279233
0.0226984
0.0178915
0.0131268
0.00849664
0.00394862
-0.000536188
23.6077
23.6091
23.6143
23.6264
23.6604
23.7181
23.7898
23.8711
23.9626
24.0634
24.1724
24.2885
24.4108
24.5378
24.6681
24.8001
24.9321
25.062
25.1878
25.3072
25.4181
25.5178
25.6039
25.6736
25.724
25.752
25.7545
25.728
25.6687
25.5727
25.4358
25.2536
25.0215
24.7344
24.3874
23.9754
23.493
22.9352
22.2967
21.5724
20.7574
19.8469
18.8364
17.7218
16.4996
15.1668
13.7214
12.1623
10.4895
8.70516
6.81184
4.81224
2.71114
0.514533
-1.7703
-4.13493
-6.56981
-9.06436
-11.6072
-14.1862
-16.7888
-19.4025
-22.0143
-24.6119
-27.1832
-29.7167
-32.2019
-34.6293
-36.9911
-39.2807
-41.4935
-43.6268
-45.6796
-47.6529
-49.5492
-51.3729
-53.1298
-54.8274
-56.4746
-58.0819
-59.6611
-61.2254
-62.7894
-64.3691
-65.9818
-67.6465
-69.3842
-71.218
-73.1708
-75.2737
-77.5523
-80.0376
-82.7647
-85.7733
-89.1001
-92.8008
-96.9761
-101.014
-107.592
0.030135
0.0469736
0.0417652
0.0355233
0.0303483
0.0247103
0.0195104
0.0143893
0.0094409
0.00459929
-0.000166672
25.1825
25.1844
25.1905
25.2055
25.246
25.3111
25.3898
25.4796
25.5808
25.6924
25.8135
25.9428
26.0793
26.2216
26.368
26.5169
26.6665
26.8146
26.9592
27.0979
27.2284
27.3481
27.4543
27.5442
27.6148
27.6626
27.6843
27.6761
27.6339
27.5533
27.4297
27.2582
27.0336
26.7506
26.4035
25.9866
25.4943
24.9206
24.2599
23.5064
22.6543
21.6983
20.6331
19.4539
18.1563
16.737
15.1931
13.5232
11.7267
9.8057
7.76293
5.60103
3.32485
0.940887
-1.54286
-4.11698
-6.77069
-9.49196
-12.2677
-15.0842
-17.9269
-20.7811
-23.6322
-26.4656
-29.2671
-32.0235
-34.7225
-37.3531
-39.9061
-42.3739
-44.7513
-47.0352
-49.2243
-51.3196
-53.3242
-55.2427
-57.0817
-58.8493
-60.5553
-62.2112
-63.8298
-65.4255
-67.0141
-68.6126
-70.2399
-71.9162
-73.6644
-75.5098
-77.47
-79.5905
-81.8931
-84.412
-87.1854
-90.2652
-93.6889
-97.5281
-101.919
-106.059
-113.268
0.0351297
0.0508889
0.0449289
0.0383988
0.0326148
0.0265567
0.0209654
0.0155011
0.0102629
0.00516295
0.000158246
26.7452
26.7477
26.755
26.7735
26.821
26.8934
26.9796
27.0784
27.19
27.3132
27.4472
27.5907
27.7425
27.9011
28.065
28.2323
28.401
28.5692
28.7345
28.8946
29.0471
29.1894
29.3186
29.4318
29.5258
29.5971
29.6419
29.6561
29.6352
29.5746
29.469
29.3132
29.1014
28.8276
28.4859
28.0698
27.5732
26.9894
26.3121
25.5347
24.6509
23.6542
22.5387
21.2986
19.9288
18.4251
16.784
15.0034
13.0823
11.0222
8.82605
6.49661
4.03857
1.45894
-1.23353
-4.02835
-6.91338
-9.87496
-12.8982
-15.9673
-19.0656
-22.1761
-25.2817
-28.3655
-31.4111
-34.4029
-37.3267
-40.1697
-42.9212
-45.5728
-48.1182
-50.5539
-52.8786
-55.0934
-57.2015
-59.2081
-61.1206
-62.9479
-64.701
-66.3923
-68.0358
-69.6471
-71.2432
-72.8424
-74.4644
-76.131
-77.8656
-79.6941
-81.6443
-83.7467
-86.0404
-88.5575
-91.3413
-94.4312
-97.89
-101.801
-106.363
-110.503
-118.356
0.0444555
0.0543123
0.0484441
0.0410173
0.0346716
0.02817
0.0221926
0.016412
0.0109275
0.00562039
0.000435367
28.2945
28.2978
28.3065
28.3292
28.3838
28.4638
28.5578
28.6662
28.7888
28.9245
29.0723
29.2309
29.3991
29.5754
29.758
29.9451
30.1347
30.3247
30.5128
30.6966
30.8736
31.0412
31.1964
31.3363
31.4573
31.5558
31.6277
31.6687
31.6738
31.638
31.5557
31.4209
31.2274
30.9689
30.6385
30.2296
29.7349
29.1475
28.46
27.6651
26.7554
25.7238
24.563
23.2666
21.8284
20.2432
18.5068
16.6161
14.5696
12.368
10.0144
7.51182
4.86454
2.08005
-0.832056
-3.86016
-6.99063
-10.208
-13.4954
-16.8346
-20.2064
-23.5913
-26.9692
-30.3206
-33.6262
-36.8681
-40.0294
-43.0957
-46.0545
-48.8962
-51.6136
-54.2028
-56.6622
-58.9932
-61.1992
-63.2863
-65.2626
-67.1384
-68.9254
-70.6376
-72.2903
-73.9002
-75.4855
-77.0657
-78.6615
-80.2959
-81.9929
-83.7791
-85.6871
-87.7386
-89.98
-92.4468
-95.1844
-98.2425
-101.681
-105.59
-110.279
-114.295
-122.695
0.0545304
0.0565776
0.0520846
0.043221
0.0364959
0.0294679
0.023116
0.0170603
0.0113901
0.0059453
0.000657111
29.829
29.833
29.8432
29.8708
29.9329
30.0206
30.123
30.2417
30.3761
30.525
30.6874
30.8622
31.0479
31.243
31.4457
31.6542
31.8664
32.0801
32.293
32.5029
32.707
32.9028
33.0873
33.2572
33.409
33.5387
33.6421
33.7145
33.7505
33.7447
33.6911
33.5832
33.4143
33.1773
32.8652
32.4702
31.9847
31.4008
30.7103
29.905
28.9765
27.9165
26.7167
25.3694
23.8675
22.2045
20.3752
18.3756
16.2033
13.8579
11.3429
8.6611
5.81655
2.81713
-0.326774
-3.6023
-6.99422
-10.4851
-14.0557
-17.6852
-21.3514
-25.0317
-28.7027
-32.3416
-35.926
-39.4347
-42.8487
-46.1507
-49.3269
-52.3659
-55.2599
-58.0042
-60.5972
-63.0404
-65.3381
-67.497
-69.5263
-71.4377
-73.2445
-74.9618
-76.6064
-78.1964
-79.7513
-81.2918
-82.8391
-84.4176
-86.0499
-87.7663
-89.5944
-91.5565
-93.7119
-96.087
-98.731
-101.697
-105.046
-108.857
-113.607
-117.372
-126.146
0.0657083
0.0569884
0.0555467
0.0451202
0.0379827
0.0303089
0.0236239
0.0173621
0.0115937
0.00610447
0.000811416
31.347
31.3517
31.3639
31.3967
31.4666
31.562
31.6737
31.8032
31.9501
32.113
32.291
32.4829
32.6873
32.9025
33.1268
33.3581
33.5946
33.834
34.0741
34.3124
34.5464
34.7735
34.9904
35.194
35.3804
35.5456
35.685
35.7936
35.8658
35.8955
35.8765
35.8018
35.6641
35.4558
35.1692
34.7959
34.3275
33.7552
33.07
32.2624
31.323
30.2422
29.0105
27.619
26.059
24.3229
22.4042
20.2977
17.9997
15.5086
12.8281
9.96065
6.91024
3.68484
0.295649
-3.24322
-6.91481
-10.6995
-14.5754
-18.5185
-22.5034
-26.5035
-30.4917
-34.4412
-38.326
-42.1214
-45.8052
-49.3577
-52.7625
-56.0072
-59.0826
-61.9836
-64.7086
-67.2594
-69.6412
-71.862
-73.9324
-75.8655
-77.6762
-79.3814
-80.9993
-82.5494
-84.0525
-85.5318
-87.0035
-88.4969
-90.0378
-91.6522
-93.37
-95.2225
-97.2449
-99.4827
-101.979
-104.789
-107.972
-111.571
-116.285
-119.68
-128.536
0.0799819
0.0678888
0.0605619
0.0469623
0.038886
0.0304864
0.0235724
0.0172196
0.0114767
0.00606304
0.000884525
32.8471
32.8525
32.8671
32.9054
32.983
33.0866
33.2081
33.3492
33.5092
33.687
33.8815
34.0916
34.3157
34.5523
34.7994
35.0553
35.3179
35.585
35.8544
36.1237
36.3905
36.6518
36.9047
37.1456
37.3708
37.5758
37.7559
37.9058
38.0196
38.0908
38.1128
38.078
37.9787
37.8068
37.5537
37.2106
36.7681
36.2165
35.5456
34.745
33.8038
32.7111
31.456
30.028
28.4169
26.6137
24.6101
22.3995
19.9768
17.3391
14.4884
11.4287
8.1633
4.69989
1.05036
-2.76983
-6.74184
-10.8436
-15.0502
-19.334
-23.6656
-28.0139
-32.3474
-36.6345
-40.8449
-44.9498
-48.9234
-52.7429
-56.3895
-59.8489
-63.111
-66.1701
-69.0248
-71.6778
-74.1351
-76.4065
-78.5043
-80.4434
-82.2408
-83.9151
-85.4861
-86.9746
-88.4013
-89.7884
-91.1645
-92.5499
-93.9721
-95.4572
-97.0344
-98.7366
-100.586
-102.641
-104.934
-107.52
-110.461
-113.729
-118.267
-121.207
-129.782
0.103437
0.0791175
0.0614367
0.0474071
0.0383638
0.0296485
0.0227645
0.0165231
0.0109773
0.00578814
0.000862067
34.3275
34.3338
34.351
34.3954
34.4807
34.5928
34.7246
34.8778
35.0517
35.2451
35.457
35.6863
35.9313
36.1904
36.4619
36.7439
37.0343
37.3312
37.6323
37.9353
38.2376
38.5365
38.8287
39.1108
39.3788
39.6282
39.8539
40.0504
40.2116
40.3306
40.4002
40.4125
40.3594
40.2321
40.0214
39.7177
39.3108
38.7899
38.1437
37.3605
36.4279
35.3336
34.065
32.6099
30.9563
29.0932
27.0106
24.6999
22.1543
19.3694
16.345
13.086
9.5959
5.88125
1.95462
-2.1672
-6.46331
-10.9089
-15.4755
-20.1313
-24.8421
-29.5716
-34.2829
-38.939
-43.5043
-47.9453
-52.2316
-56.337
-60.2401
-63.9243
-67.3786
-70.597
-73.5786
-76.327
-78.8499
-81.159
-83.2687
-85.1963
-86.9611
-88.5837
-90.0857
-91.4868
-92.8139
-94.0893
-95.3407
-96.5915
-97.8672
-99.1936
-100.598
-102.109
-103.758
-105.58
-107.613
-109.909
-112.527
-115.364
-119.54
-121.976
-129.822
0.0971922
0.0711007
0.0566008
0.0446744
0.0357096
0.0275147
0.0210395
0.0151958
0.0100577
0.00526247
0.000733601
35.7867
35.7937
35.8138
35.8646
35.9578
36.0786
36.2213
36.3872
36.5756
36.7855
37.0157
37.265
37.532
37.815
38.1122
38.4218
38.742
39.0707
39.4058
39.7451
40.0859
40.4255
40.7607
41.0879
41.4029
41.7013
41.9777
42.2264
42.4409
42.6142
42.7385
42.8057
42.807
42.7332
42.5745
42.3203
41.9596
41.4806
40.8706
40.1165
39.2045
38.1204
36.8499
35.3787
33.6928
31.779
29.6248
27.2196
24.5543
21.6226
18.4215
14.9563
11.2309
7.25054
3.02817
-1.41815
-6.0653
-10.8854
-15.8458
-20.9097
-26.0375
-31.1867
-36.3139
-41.3756
-46.33
-51.1378
-55.7634
-60.1765
-64.3525
-68.2726
-71.9249
-75.3034
-78.4078
-81.2434
-83.8199
-86.1514
-88.2551
-90.1512
-91.8615
-93.4091
-94.8126
-96.1046
-97.307
-98.4464
-99.5482
-100.637
-101.739
-102.878
-104.079
-105.368
-106.774
-108.321
-110.046
-111.988
-114.204
-116.538
-120.138
-122.045
-128.702
0.0805055
0.0604868
0.0482459
0.039258
0.0311245
0.0240938
0.0183735
0.0132275
0.0087168
0.00449238
0.000503352
37.2225
37.2305
37.2536
37.3111
37.4122
37.5423
37.6962
37.8754
38.079
38.306
38.5553
38.8257
39.1157
39.4237
39.748
40.087
40.4387
40.8013
41.1728
41.5509
41.9331
42.3167
42.6984
43.0746
43.441
43.7931
44.1254
44.432
44.7061
44.9404
45.1269
45.2571
45.3217
45.311
45.2144
45.0209
44.7181
44.2932
43.7323
43.0206
42.1426
41.0823
39.8234
38.3492
36.6433
34.6897
32.4736
29.9813
27.2011
24.1241
20.7445
17.0663
13.0941
8.83253
4.29383
-0.502712
-5.53155
-10.761
-16.154
-21.6682
-27.2571
-32.871
-38.4588
-43.9693
-49.3529
-54.5633
-59.5592
-64.3051
-68.7726
-72.941
-76.7971
-80.3353
-83.5567
-86.4687
-89.0838
-91.4192
-93.4955
-95.3364
-96.9671
-98.4068
-99.6922
-100.847
-101.9
-102.876
-103.802
-104.703
-105.604
-106.529
-107.499
-108.537
-109.667
-110.901
-112.276
-113.812
-115.551
-117.337
-120.167
-121.541
-126.685
0.0599881
0.0510189
0.0368758
0.0322751
0.0249893
0.0196084
0.0148854
0.0106849
0.00699113
0.00349756
0.000188581
38.6331
38.6419
38.6683
38.7326
38.8421
38.9817
39.1474
39.3404
39.5598
39.8046
40.0737
40.3661
40.6801
41.0143
41.3671
41.7368
42.1219
42.5205
42.9306
43.3502
43.7767
44.2075
44.6392
45.0683
45.4905
45.9011
46.2947
46.665
47.0051
47.3075
47.564
47.7657
47.9029
47.9655
47.9422
47.8211
47.589
47.2318
46.7341
46.0795
45.2509
44.23
42.9982
41.5363
39.8251
37.8455
35.5793
33.0095
30.1213
26.9024
23.3441
19.4462
15.2153
10.6559
5.77815
0.602859
-4.84222
-10.5214
-16.3923
-22.4058
-28.5077
-34.6396
-40.7408
-46.751
-52.6112
-58.2667
-63.6687
-68.776
-73.5559
-77.9854
-82.0505
-85.7461
-89.0757
-92.0497
-94.6845
-97.001
-99.0241
-100.782
-102.297
-103.608
-104.743
-105.733
-106.607
-107.393
-108.117
-108.804
-109.479
-110.165
-110.88
-111.643
-112.471
-113.366
-114.359
-115.449
-116.658
-117.861
-119.796
-120.597
-123.972
0.037316
0.0414733
0.0229329
0.0245066
0.0170985
0.0140343
0.0106971
0.00766397
0.00493066
0.00229758
-0.000204533
40.0162
40.0261
40.0558
40.1272
40.2452
40.3947
40.5725
40.7797
41.0155
41.2787
41.5685
41.8836
42.2226
42.5841
42.9666
43.3688
43.7889
44.2255
44.6766
45.1401
45.6138
46.0948
46.5801
47.066
47.5484
48.0224
48.4825
48.9224
49.3352
49.713
50.0475
50.3295
50.5493
50.6959
50.7577
50.7219
50.5743
50.2994
49.8806
49.2997
48.5376
47.5739
46.3873
44.9557
43.2565
41.2672
38.9657
36.3311
33.3443
29.9892
26.2534
22.1308
17.6293
12.754
7.51271
1.92648
-3.97424
-10.1496
-16.551
-23.1217
-29.7979
-36.5109
-43.1888
-49.7592
-56.1522
-62.3025
-68.1525
-73.6537
-78.7688
-83.4721
-87.7496
-91.5976
-95.0226
-98.0396
-100.67
-102.94
-104.878
-106.515
-107.89
-109.035
-109.987
-110.779
-111.444
-112.011
-112.506
-112.955
-113.381
-113.805
-114.246
-114.715
-115.22
-115.77
-116.363
-116.99
-117.647
-118.239
-119.204
-119.343
-120.76
0.0219978
0.0289247
0.00947131
0.0155942
0.00876445
0.00833182
0.00616453
0.00437935
0.00268116
0.000972413
-0.000668794
41.3698
41.3808
41.4139
41.4926
41.6193
41.779
41.9693
42.1913
42.4438
42.7261
43.0371
43.3757
43.7405
44.1304
44.544
44.9799
45.4368
45.9132
46.4074
46.9174
47.4408
47.9753
48.5175
49.0641
49.6109
50.1531
50.6852
51.2007
51.6927
52.1534
52.5742
52.9459
53.2584
53.5005
53.66
53.7231
53.6747
53.4983
53.1755
52.6867
52.0104
51.124
50.0031
48.6226
46.9561
44.9769
42.6584
39.975
36.9025
33.4198
29.5096
25.1599
20.3765
15.1658
9.53401
3.5011
-2.90004
-9.62509
-16.6186
-23.8147
-31.1383
-38.508
-45.8378
-53.041
-60.0336
-66.7374
-73.0837
-79.0157
-84.4905
-89.4802
-93.971
-97.9622
-101.465
-104.5
-107.096
-109.287
-111.1
-112.582
-113.773
-114.715
-115.447
-116.007
-116.429
-116.745
-116.983
-117.168
-117.323
-117.468
-117.618
-117.782
-117.959
-118.156
-118.351
-118.521
-118.632
-118.607
-118.602
-117.977
-117.481
-0.00116461
0.0122464
-0.00473142
0.00495451
0.000311276
0.00227597
0.00140276
0.000995657
0.000371394
-0.000393576
-0.00117994
42.6914
42.7037
42.7404
42.8265
42.9622
43.1323
43.3355
43.5725
43.8423
44.1441
44.4769
44.8396
45.2312
45.6504
46.0961
46.5672
47.0625
47.5805
48.1197
48.6784
49.2543
49.845
50.4476
51.0586
51.674
52.2892
52.8984
53.4955
54.0734
54.6245
55.1401
55.6111
56.027
56.3765
56.6467
56.8232
56.89
56.8292
56.6213
56.2446
55.6756
54.8891
53.8576
52.5523
50.9427
48.9973
46.6843
43.9722
40.831
37.2332
33.1554
28.5801
23.5034
17.9366
11.8857
5.36644
-1.58624
-8.9234
-16.5814
-24.4838
-32.5421
-40.6591
-48.7315
-56.6544
-64.3262
-71.6528
-78.5522
-84.9569
-90.8179
-96.1052
-100.807
-104.926
-108.482
-111.502
-114.025
-116.101
-117.737
-119.014
-119.979
-120.676
-121.148
-121.436
-121.579
-121.611
-121.562
-121.457
-121.32
-121.169
-121.017
-120.869
-120.72
-120.573
-120.388
-120.126
-119.726
-119.108
-118.246
-116.824
-114.733
-0.0288183
-0.016162
-0.0175036
-0.00727394
-0.00770664
-0.00386281
-0.00318776
-0.00224059
-0.00184013
-0.00171868
-0.00171258
43.9789
43.9926
44.033
44.1265
44.2714
44.4522
44.6685
44.9208
45.2082
45.5299
45.885
46.2725
46.6915
47.1409
47.6199
48.1274
48.6624
49.2236
49.8098
50.4192
51.05
51.6997
52.3658
53.0448
53.7329
54.4255
55.1171
55.8016
56.4721
57.1211
57.7402
58.32
58.8504
59.3195
59.7141
60.0193
60.218
60.2915
60.2186
59.9761
59.5383
58.8771
57.9618
56.7595
55.2352
53.3518
51.0716
48.3562
45.1684
41.473
37.2391
32.4415
27.0648
21.121
14.6195
7.56947
0.00669052
-8.01467
-16.4229
-25.1284
-34.0263
-42.9997
-51.9239
-60.6715
-69.1188
-77.1508
-84.6691
-91.5938
-97.8688
-103.463
-108.367
-112.593
-116.167
-119.127
-121.52
-123.386
-124.822
-125.852
-126.542
-126.946
-127.112
-127.085
-126.909
-126.622
-126.254
-125.833
-125.382
-124.919
-124.457
-123.998
-123.532
-123.058
-122.527
-121.887
-121.044
-119.917
-118.363
-116.253
-112.798
-0.0606361
-0.0430411
-0.0286564
-0.01893
-0.0147216
-0.00953219
-0.00724358
-0.00513147
-0.00382712
-0.00293359
-0.00224738
45.23
45.245
45.2892
45.3903
45.5444
45.7362
45.9658
46.2337
46.539
46.8809
47.2587
47.6714
48.1185
48.5989
49.112
49.6569
50.2329
50.8388
51.4736
52.1357
52.8235
53.5348
54.2672
55.0176
55.7822
56.5566
57.3355
58.113
58.8826
59.637
60.368
61.0667
61.7226
62.3239
62.8571
63.3067
63.6551
63.8825
63.9665
63.8821
63.6016
63.0939
62.325
61.2576
59.8515
58.0637
55.8492
53.1621
49.9562
46.1871
41.8141
36.8022
31.1248
24.7841
17.7957
10.1661
1.9268
-6.86357
-16.1234
-25.7477
-35.6118
-45.5743
-55.4834
-65.1834
-74.5225
-83.3597
-91.5746
-99.0722
-105.789
-111.693
-116.783
-121.082
-124.628
-127.471
-129.664
-131.293
-132.427
-133.138
-133.491
-133.546
-133.356
-132.969
-132.432
-131.786
-131.066
-130.3
-129.512
-128.722
-127.943
-127.177
-126.41
-125.643
-124.814
-123.868
-122.68
-121.174
-119.115
-116.524
-112.081
-0.0750313
-0.0536446
-0.0371107
-0.0271029
-0.0201389
-0.0140125
-0.0104132
-0.00742907
-0.00543487
-0.00394755
-0.00275093
46.4422
46.4585
46.5068
46.6154
46.7789
46.9817
47.2247
47.5083
47.8317
48.1941
48.5948
49.0333
49.5088
50.0209
50.5688
51.1521
51.7701
52.4219
53.1067
53.8232
54.5699
55.3451
56.1466
56.9713
57.8158
58.676
59.5468
60.4228
61.2978
62.1648
63.0163
63.8434
64.636
65.3821
66.0683
66.6786
67.1951
67.5971
67.8612
67.9609
67.8661
67.5433
66.9546
66.0583
64.8084
63.1554
61.0465
58.4265
55.2387
51.4278
46.9407
41.7297
35.7558
29.0009
21.4876
13.2238
4.23138
-5.4269
-15.658
-26.3405
-37.3245
-48.4384
-59.4962
-70.3059
-80.6796
-90.4425
-99.4458
-107.575
-114.758
-120.967
-126.212
-130.533
-133.987
-136.636
-138.545
-139.832
-140.594
-140.911
-140.857
-140.5
-139.896
-139.097
-138.153