/*--------------------------------*- C++ -*----------------------------------*\
| =========                 |                                                 |
| \\      /  F ield         | OpenFOAM: The Open Source CFD Toolbox           |
|  \\    /   O peration     | Version:  v2106                                 |
|   \\  /    A nd           | Website:  www.openfoam.com                      |
|    \\/     M anipulation  |                                                 |
\*---------------------------------------------------------------------------*/
FoamFile
{
    version     2.0;
    format      ascii;
    arch        "LSB;label=32;scalar=64";
    class       surfaceScalarField;
    location    "1.1";
    object      phi;
}
// * * * * * * * * * * * * * * * * * * * * * * * * * * * * * * * * * * * * * //

dimensions      [0 3 -1 0 0 0 0];

oriented        oriented;

internalField   nonuniform List<scalar> 
59425
(
-8.76099e-09
-5.4758e-06
-1.75825e-08
-5.52017e-06
-2.60992e-08
-5.52934e-06
-3.42678e-08
-5.53856e-06
-4.22661e-08
-5.55044e-06
-5.02206e-08
-5.56606e-06
-5.81807e-08
-5.58612e-06
-6.61402e-08
-5.61092e-06
-7.40626e-08
-5.64045e-06
-8.18965e-08
-5.67444e-06
-8.95646e-08
-5.71255e-06
-9.69313e-08
-5.75458e-06
-1.03821e-07
-5.80051e-06
-1.1016e-07
-5.85013e-06
-1.15972e-07
-5.90332e-06
-1.21307e-07
-5.96e-06
-1.26267e-07
-6.01992e-06
-1.30936e-07
-6.08288e-06
-1.35325e-07
-6.14853e-06
-1.39503e-07
-6.21675e-06
-1.43557e-07
-6.28749e-06
-1.47491e-07
-6.3605e-06
-1.51288e-07
-6.43551e-06
-1.54928e-07
-6.51227e-06
-1.58386e-07
-6.5905e-06
-1.61637e-07
-6.66993e-06
-1.64653e-07
-6.75024e-06
-1.67404e-07
-6.83112e-06
-1.69858e-07
-6.91222e-06
-1.71983e-07
-6.99317e-06
-1.73743e-07
-7.07358e-06
-1.75103e-07
-7.15305e-06
-1.76027e-07
-7.23115e-06
-1.76484e-07
-7.30744e-06
-1.76452e-07
-7.38146e-06
-1.75913e-07
-7.45272e-06
-1.74823e-07
-7.52067e-06
-1.73142e-07
-7.58483e-06
-1.70825e-07
-7.64475e-06
-1.6781e-07
-7.69986e-06
-1.64041e-07
-7.74955e-06
-1.59433e-07
-7.79328e-06
-1.53932e-07
-7.83048e-06
-1.47525e-07
-7.86062e-06
-1.402e-07
-7.88324e-06
-1.31957e-07
-7.89787e-06
-1.22818e-07
-7.90409e-06
-1.12826e-07
-7.90149e-06
-1.02067e-07
-7.8897e-06
-9.06776e-08
-7.86845e-06
-7.88147e-08
-7.83747e-06
-6.66351e-08
-7.79639e-06
-5.43784e-08
-7.74504e-06
-4.2131e-08
-7.68342e-06
-2.98715e-08
-7.61148e-06
-1.76455e-08
-7.5293e-06
-5.53507e-09
-7.43703e-06
6.36228e-09
-7.33493e-06
1.79479e-08
-7.22333e-06
2.91151e-08
-7.10265e-06
3.97573e-08
-6.97341e-06
4.97676e-08
-6.83619e-06
5.90412e-08
-6.6917e-06
6.74742e-08
-6.54071e-06
7.49654e-08
-6.38406e-06
8.14194e-08
-6.22265e-06
8.67449e-08
-6.05745e-06
9.08574e-08
-5.88947e-06
9.3673e-08
-5.71981e-06
9.51073e-08
-5.54958e-06
9.50695e-08
-5.38e-06
9.34607e-08
-5.21227e-06
9.01741e-08
-5.0477e-06
8.51018e-08
-4.88761e-06
7.81443e-08
-4.73333e-06
6.92189e-08
-4.58616e-06
5.82788e-08
-4.44732e-06
4.53331e-08
-4.31797e-06
3.04613e-08
-4.1993e-06
1.37982e-08
-4.09274e-06
-4.55329e-09
-4.00004e-06
-2.46452e-08
-3.92276e-06
-4.67027e-08
-3.8621e-06
-7.09439e-08
-3.81915e-06
-9.76206e-08
-3.79579e-06
-1.27009e-07
-3.79352e-06
-1.59076e-07
-3.81301e-06
-1.9409e-07
-3.85515e-06
-2.31742e-07
-3.92167e-06
-2.71261e-07
-4.01338e-06
-3.11772e-07
-4.13105e-06
-3.51852e-07
-4.27551e-06
-3.88694e-07
-4.4472e-06
-4.17e-07
-4.64613e-06
-4.24972e-07
-4.87205e-06
-3.87417e-07
-5.13292e-06
-3.05268e-07
-5.39245e-06
5.08896e-08
-5.79287e-06
4.16362e-07
-6.85241e-06
-2.52837e-07
-1.32988e-05
-6.45867e-07
-1.30521e-05
-5.40456e-06
-2.33213e-05
-1.37879e-05
-2.46841e-05
-1.65991e-05
-1.60192e-05
-1.94844e-05
-1.46165e-05
-2.04577e-05
-9.97319e-06
-2.11352e-05
-7.40558e-06
-2.0523e-05
-3.96335e-06
-1.97555e-05
-1.9433e-06
-6.7267e-07
-1.06521e-08
-5.46515e-06
-2.12621e-08
-5.50956e-06
-3.16246e-08
-5.51898e-06
-4.17758e-08
-5.52841e-06
-5.18028e-08
-5.54041e-06
-6.17743e-08
-5.55609e-06
-7.17029e-08
-5.57619e-06
-8.15566e-08
-5.60107e-06
-9.12811e-08
-5.63073e-06
-1.00812e-07
-5.66491e-06
-1.10016e-07
-5.70335e-06
-1.18701e-07
-5.7459e-06
-1.26744e-07
-5.79246e-06
-1.34158e-07
-5.84271e-06
-1.41087e-07
-5.89639e-06
-1.47636e-07
-5.95345e-06
-1.53881e-07
-6.01368e-06
-1.59898e-07
-6.07686e-06
-1.65699e-07
-6.14273e-06
-1.71288e-07
-6.21116e-06
-1.76686e-07
-6.28209e-06
-1.81856e-07
-6.35533e-06
-1.86749e-07
-6.43062e-06
-1.91315e-07
-6.5077e-06
-1.95505e-07
-6.58631e-06
-1.99269e-07
-6.66617e-06
-2.02558e-07
-6.74696e-06
-2.05319e-07
-6.82836e-06
-2.075e-07
-6.91004e-06
-2.09049e-07
-6.99162e-06
-2.09913e-07
-7.07272e-06
-2.10041e-07
-7.15292e-06
-2.09384e-07
-7.23181e-06
-2.079e-07
-7.30892e-06
-2.05565e-07
-7.38379e-06
-2.02367e-07
-7.45591e-06
-1.98283e-07
-7.52475e-06
-1.93301e-07
-7.58981e-06
-1.87417e-07
-7.65063e-06
-1.806e-07
-7.70668e-06
-1.72752e-07
-7.7574e-06
-1.63736e-07
-7.80229e-06
-1.53471e-07
-7.84075e-06
-1.4192e-07
-7.87217e-06
-1.29101e-07
-7.89606e-06
-1.15053e-07
-7.91192e-06
-9.98289e-08
-7.91931e-06
-8.35117e-08
-7.9178e-06
-6.62308e-08
-7.90698e-06
-4.81837e-08
-7.8865e-06
-2.95921e-08
-7.85606e-06
-1.05215e-08
-7.81546e-06
8.94418e-09
-7.7645e-06
2.87366e-08
-7.70321e-06
4.87068e-08
-7.63145e-06
6.86903e-08
-7.54928e-06
8.8497e-08
-7.45684e-06
1.07923e-07
-7.35435e-06
1.26765e-07
-7.24217e-06
1.44819e-07
-7.12071e-06
1.61881e-07
-6.99047e-06
1.7775e-07
-6.85206e-06
1.92231e-07
-6.70618e-06
2.05135e-07
-6.55361e-06
2.16284e-07
-6.3952e-06
2.2551e-07
-6.23188e-06
2.32663e-07
-6.0646e-06
2.37608e-07
-5.89442e-06
2.40228e-07
-5.72242e-06
2.40418e-07
-5.54977e-06
2.38085e-07
-5.37766e-06
2.33144e-07
-5.20733e-06
2.25523e-07
-5.04008e-06
2.15164e-07
-4.87725e-06
2.02027e-07
-4.72019e-06
1.86104e-07
-4.57024e-06
1.67436e-07
-4.42866e-06
1.46137e-07
-4.29667e-06
1.22402e-07
-4.17556e-06
9.64432e-08
-4.06678e-06
6.83189e-08
-3.97191e-06
3.78692e-08
-3.89231e-06
4.8882e-09
-3.82912e-06
-3.0959e-08
-3.7833e-06
-7.08875e-08
-3.75586e-06
-1.16202e-07
-3.7482e-06
-1.67081e-07
-3.76213e-06
-2.22966e-07
-3.79926e-06
-2.8339e-07
-3.86125e-06
-3.47646e-07
-3.94912e-06
-4.14656e-07
-4.06404e-06
-4.82721e-07
-4.20745e-06
-5.49006e-07
-4.38092e-06
-6.08983e-07
-4.58615e-06
-6.55212e-07
-4.82582e-06
-6.77959e-07
-5.11018e-06
-6.51021e-07
-5.41939e-06
-4.62743e-07
-5.98115e-06
-2.20946e-07
-7.09421e-06
-8.46587e-07
-1.26732e-05
-1.42704e-06
-1.24716e-05
-5.40781e-06
-1.93406e-05
-1.22798e-05
-1.78122e-05
-1.48409e-05
-1.34581e-05
-1.73297e-05
-1.21276e-05
-1.83067e-05
-8.99619e-06
-1.893e-05
-6.7823e-06
-1.85827e-05
-4.31066e-06
-1.80463e-05
-2.47972e-06
-1.07334e-06
-1.36574e-08
-5.45149e-06
-2.72463e-08
-5.49597e-06
-4.06018e-08
-5.50563e-06
-5.37788e-08
-5.51523e-06
-6.68409e-08
-5.52735e-06
-7.98164e-08
-5.54312e-06
-9.26872e-08
-5.56332e-06
-1.05399e-07
-5.58836e-06
-1.17875e-07
-5.61825e-06
-1.30014e-07
-5.65277e-06
-1.41628e-07
-5.69173e-06
-1.52669e-07
-5.73486e-06
-1.63306e-07
-5.78183e-06
-1.73664e-07
-5.83236e-06
-1.83789e-07
-5.88627e-06
-1.93702e-07
-5.94354e-06
-2.03377e-07
-6.004e-06
-2.12768e-07
-6.06747e-06
-2.21771e-07
-6.13373e-06
-2.30305e-07
-6.20262e-06
-2.38368e-07
-6.27403e-06
-2.45929e-07
-6.34777e-06
-2.52937e-07
-6.42361e-06
-2.59331e-07
-6.50131e-06
-2.65045e-07
-6.5806e-06
-2.7001e-07
-6.6612e-06
-2.74153e-07
-6.74281e-06
-2.77401e-07
-6.82511e-06
-2.79679e-07
-6.90776e-06
-2.8091e-07
-6.99039e-06
-2.81017e-07
-7.07261e-06
-2.79925e-07
-7.15402e-06
-2.77559e-07
-7.23417e-06
-2.73848e-07
-7.31263e-06
-2.68726e-07
-7.38891e-06
-2.62119e-07
-7.46252e-06
-2.53942e-07
-7.53293e-06
-2.44134e-07
-7.59962e-06
-2.32698e-07
-7.66207e-06
-2.19677e-07
-7.7197e-06
-2.05137e-07
-7.77194e-06
-1.89152e-07
-7.81828e-06
-1.71695e-07
-7.8582e-06
-1.52653e-07
-7.89121e-06
-1.31993e-07
-7.91672e-06
-1.0974e-07
-7.93417e-06
-8.59691e-08
-7.94308e-06
-6.0797e-08
-7.94298e-06
-3.44018e-08
-7.93338e-06
-6.99942e-09
-7.9139e-06
2.12758e-08
-7.88434e-06
5.03932e-08
-7.84458e-06
8.01963e-08
-7.79431e-06
1.10385e-07
-7.7334e-06
1.40716e-07
-7.66179e-06
1.70927e-07
-7.5795e-06
2.00736e-07
-7.48665e-06
2.29846e-07
-7.38346e-06
2.57959e-07
-7.27028e-06
2.8478e-07
-7.14753e-06
3.10012e-07
-7.0157e-06
3.33358e-07
-6.87541e-06
3.54534e-07
-6.72735e-06
3.7326e-07
-6.57233e-06
3.89269e-07
-6.41121e-06
4.02314e-07
-6.24492e-06
4.1217e-07
-6.07445e-06
4.18637e-07
-5.90088e-06
4.21542e-07
-5.72533e-06
4.20739e-07
-5.54897e-06
4.16106e-07
-5.37303e-06
4.07549e-07
-5.19878e-06
3.95e-07
-5.02753e-06
3.78419e-07
-4.86067e-06
3.57803e-07
-4.69958e-06
3.33197e-07
-4.54563e-06
3.04721e-07
-4.40018e-06
2.726e-07
-4.26455e-06
2.3712e-07
-4.14008e-06
1.98373e-07
-4.02803e-06
1.56049e-07
-3.92959e-06
1.09538e-07
-3.8458e-06
5.80743e-08
-3.77766e-06
9.45904e-10
-3.72617e-06
-6.25486e-08
-3.69236e-06
-1.32727e-07
-3.67803e-06
-2.09203e-07
-3.68566e-06
-2.91391e-07
-3.71707e-06
-3.79067e-07
-3.77358e-06
-4.71809e-07
-3.85638e-06
-5.68811e-07
-3.96704e-06
-6.68741e-07
-4.10752e-06
-7.69442e-07
-4.28022e-06
-8.6745e-07
-4.48814e-06
-9.57441e-07
-4.73583e-06
-1.03336e-06
-5.03426e-06
-1.06797e-06
-5.38478e-06
-1.05787e-06
-5.99125e-06
-9.55283e-07
-7.1968e-06
-1.49379e-06
-1.21347e-05
-2.13534e-06
-1.183e-05
-4.99393e-06
-1.6482e-05
-9.27385e-06
-1.35322e-05
-1.18472e-05
-1.08847e-05
-1.416e-05
-9.81483e-06
-1.54861e-05
-7.67004e-06
-1.63568e-05
-5.91158e-06
-1.66125e-05
-4.05503e-06
-1.65992e-05
-2.49293e-06
-1.1642e-06
-1.72274e-08
-5.43426e-06
-3.44215e-08
-5.47878e-06
-5.13799e-08
-5.48867e-06
-6.81502e-08
-5.49846e-06
-8.47817e-08
-5.51072e-06
-1.01283e-07
-5.52661e-06
-1.17621e-07
-5.54698e-06
-1.3373e-07
-5.57225e-06
-1.49517e-07
-5.60247e-06
-1.64835e-07
-5.63745e-06
-1.79682e-07
-5.67688e-06
-1.94225e-07
-5.72032e-06
-2.0856e-07
-5.76749e-06
-2.22644e-07
-5.81827e-06
-2.36408e-07
-5.8725e-06
-2.49846e-07
-5.9301e-06
-2.62913e-07
-5.99094e-06
-2.7554e-07
-6.05484e-06
-2.87627e-07
-6.12164e-06
-2.99079e-07
-6.19117e-06
-3.09835e-07
-6.26327e-06
-3.19839e-07
-6.33777e-06
-3.29018e-07
-6.41443e-06
-3.37295e-07
-6.49303e-06
-3.44586e-07
-6.57331e-06
-3.50804e-07
-6.65498e-06
-3.55856e-07
-6.73776e-06
-3.59649e-07
-6.82132e-06
-3.62086e-07
-6.90532e-06
-3.6307e-07
-6.98941e-06
-3.625e-07
-7.07318e-06
-3.6028e-07
-7.15624e-06
-3.56312e-07
-7.23814e-06
-3.50503e-07
-7.31844e-06
-3.42759e-07
-7.39666e-06
-3.32991e-07
-7.47229e-06
-3.21106e-07
-7.54481e-06
-3.07027e-07
-7.6137e-06
-2.90698e-07
-7.6784e-06
-2.7206e-07
-7.73833e-06
-2.51078e-07
-7.79292e-06
-2.27811e-07
-7.84154e-06
-2.02409e-07
-7.8836e-06
-1.75057e-07
-7.91856e-06
-1.45789e-07
-7.94598e-06
-1.14588e-07
-7.96537e-06
-8.15305e-08
-7.97614e-06
-4.67998e-08
-7.97771e-06
-1.06408e-08
-7.96954e-06
2.67745e-08
-7.95132e-06
6.53901e-08
-7.92296e-06
1.05018e-07
-7.88421e-06
1.45412e-07
-7.8347e-06
1.86251e-07
-7.77424e-06
2.27198e-07
-7.70274e-06
2.67893e-07
-7.62019e-06
3.07958e-07
-7.52671e-06
3.47007e-07
-7.42251e-06
3.8465e-07
-7.30792e-06
4.20496e-07
-7.18337e-06
4.54152e-07
-7.04935e-06
4.85231e-07
-6.90648e-06
5.13359e-07
-6.75548e-06
5.38169e-07
-6.59714e-06
5.59314e-07
-6.43235e-06
5.76468e-07
-6.26207e-06
5.89333e-07
-6.08732e-06
5.97646e-07
-5.9092e-06
6.01176e-07
-5.72886e-06
5.99731e-07
-5.54753e-06
5.93158e-07
-5.36646e-06
5.81346e-07
-5.18696e-06
5.64225e-07
-5.01041e-06
5.41775e-07
-4.83822e-06
5.14026e-07
-4.67183e-06
4.81082e-07
-4.51269e-06
4.43146e-07
-4.36224e-06
4.00511e-07
-4.22192e-06
3.53335e-07
-4.0929e-06
3.01212e-07
-3.97591e-06
2.4323e-07
-3.8716e-06
1.78681e-07
-3.78124e-06
1.07187e-07
-3.70616e-06
2.86223e-08
-3.64761e-06
-5.68019e-08
-3.60694e-06
-1.48849e-07
-3.58598e-06
-2.4768e-07
-3.58683e-06
-3.53538e-07
-3.61122e-06
-4.66551e-07
-3.66056e-06
-5.86592e-07
-3.73634e-06
-7.1326e-07
-3.84037e-06
-8.45801e-07
-3.97498e-06
-9.82953e-07
-4.14307e-06
-1.12259e-06
-4.3485e-06
-1.2617e-06
-4.59673e-06
-1.39788e-06
-4.89808e-06
-1.5165e-06
-5.26617e-06
-1.62196e-06
-5.88579e-06
-1.64669e-06
-7.17207e-06
-2.19848e-06
-1.15829e-05
-2.69312e-06
-1.13354e-05
-4.98017e-06
-1.41949e-05
-8.35252e-06
-1.01599e-05
-1.05848e-05
-8.65243e-06
-1.25083e-05
-7.89134e-06
-1.3738e-05
-6.44036e-06
-1.45571e-05
-5.09249e-06
-1.49466e-05
-3.66557e-06
-1.50797e-05
-2.35974e-06
-1.14922e-06
-2.10233e-08
-5.41324e-06
-4.20954e-08
-5.45771e-06
-6.29661e-08
-5.4678e-06
-8.36475e-08
-5.47778e-06
-1.04162e-07
-5.4902e-06
-1.24501e-07
-5.50628e-06
-1.44617e-07
-5.52686e-06
-1.6443e-07
-5.55244e-06
-1.83796e-07
-5.5831e-06
-2.02656e-07
-5.61859e-06
-2.21219e-07
-5.65832e-06
-2.39536e-07
-5.702e-06
-2.5756e-07
-5.74947e-06
-2.75241e-07
-5.80059e-06
-2.92505e-07
-5.85524e-06
-3.093e-07
-5.91331e-06
-3.25561e-07
-5.97467e-06
-3.41211e-07
-6.03919e-06
-3.56151e-07
-6.1067e-06
-3.70285e-07
-6.17704e-06
-3.83527e-07
-6.25003e-06
-3.95791e-07
-6.3255e-06
-4.06986e-07
-6.40324e-06
-4.17014e-07
-6.483e-06
-4.25771e-07
-6.56455e-06
-4.33149e-07
-6.64761e-06
-4.39034e-07
-6.73187e-06
-4.43311e-07
-6.81704e-06
-4.4586e-07
-6.90277e-06
-4.46562e-07
-6.9887e-06
-4.45293e-07
-7.07445e-06
-4.41934e-07
-7.15959e-06
-4.36365e-07
-7.24371e-06
-4.28471e-07
-7.32634e-06
-4.18138e-07
-7.40699e-06
-4.05262e-07
-7.48517e-06
-3.89742e-07
-7.56033e-06
-3.71494e-07
-7.63195e-06
-3.50449e-07
-7.69944e-06
-3.26552e-07
-7.76223e-06
-2.99766e-07
-7.8197e-06
-2.70071e-07
-7.87123e-06
-2.37486e-07
-7.91619e-06
-2.02136e-07
-7.95391e-06
-1.64233e-07
-7.98388e-06
-1.24018e-07
-8.00559e-06
-8.16942e-08
-8.01846e-06
-3.74192e-08
-8.02198e-06
8.71461e-09
-8.01567e-06
5.6607e-08
-7.99921e-06
1.06021e-07
-7.97237e-06
1.56608e-07
-7.9348e-06
2.08029e-07
-7.88613e-06
2.59906e-07
-7.82612e-06
3.11821e-07
-7.75465e-06
3.63321e-07
-7.67169e-06
4.13948e-07
-7.57734e-06
4.63236e-07
-7.4718e-06
5.10699e-07
-7.35539e-06
5.5584e-07
-7.22851e-06
5.98168e-07
-7.09168e-06
6.3721e-07
-6.94552e-06
6.72506e-07
-6.79077e-06
7.03607e-07
-6.62824e-06
7.3009e-07
-6.45884e-06
7.51556e-07
-6.28354e-06
7.6764e-07
-6.1034e-06
7.78018e-07
-5.91957e-06
7.82408e-07
-5.73325e-06
7.80576e-07
-5.54569e-06
7.7234e-07
-5.35822e-06
7.57573e-07
-5.1722e-06
7.36209e-07
-4.98905e-06
7.08241e-07
-4.81025e-06
6.7373e-07
-4.63732e-06
6.32819e-07
-4.47178e-06
5.8573e-07
-4.31515e-06
5.32627e-07
-4.16881e-06
4.73267e-07
-4.03354e-06
4.06876e-07
-3.90952e-06
3.3272e-07
-3.79745e-06
2.50629e-07
-3.69915e-06
1.60743e-07
-3.61628e-06
6.31796e-08
-3.55005e-06
-4.20009e-08
-3.50176e-06
-1.54804e-07
-3.47318e-06
-2.75702e-07
-3.46594e-06
-4.05205e-07
-3.48172e-06
-5.43728e-07
-3.52204e-06
-6.91533e-07
-3.58854e-06
-8.48721e-07
-3.68318e-06
-1.01522e-06
-3.80848e-06
-1.19072e-06
-3.96757e-06
-1.37448e-06
-4.16474e-06
-1.56556e-06
-4.40565e-06
-1.76449e-06
-4.69915e-06
-1.96098e-06
-5.06968e-06
-2.15863e-06
-5.68814e-06
-2.31056e-06
-7.02014e-06
-2.92403e-06
-1.09694e-05
-3.46924e-06
-1.07902e-05
-5.28e-06
-1.23842e-05
-7.62093e-06
-7.81895e-06
-9.50867e-06
-6.76469e-06
-1.10964e-05
-6.30362e-06
-1.22561e-05
-5.28063e-06
-1.30594e-05
-4.28919e-06
-1.3542e-05
-3.18298e-06
-1.37874e-05
-2.11438e-06
-1.05791e-06
-2.49685e-08
-5.38827e-06
-5.00628e-08
-5.43262e-06
-7.4996e-08
-5.44287e-06
-9.97485e-08
-5.45303e-06
-1.24316e-07
-5.46564e-06
-1.48667e-07
-5.48193e-06
-1.72721e-07
-5.50281e-06
-1.96319e-07
-5.52884e-06
-2.19332e-07
-5.56009e-06
-2.41953e-07
-5.59597e-06
-2.64299e-07
-5.63598e-06
-2.86321e-07
-5.67998e-06
-3.07963e-07
-5.72783e-06
-3.2916e-07
-5.7794e-06
-3.49836e-07
-5.83456e-06
-3.69916e-07
-5.89323e-06
-3.89319e-07
-5.95527e-06
-4.07954e-07
-6.02056e-06
-4.25718e-07
-6.08894e-06
-4.42505e-07
-6.16025e-06
-4.58208e-07
-6.23433e-06
-4.72722e-07
-6.31099e-06
-4.85935e-07
-6.39002e-06
-4.97728e-07
-6.47121e-06
-5.07976e-07
-6.5543e-06
-5.16548e-07
-6.63903e-06
-5.23311e-07
-6.72511e-06
-5.28123e-07
-6.81223e-06
-5.30844e-07
-6.90005e-06
-5.31328e-07
-6.98822e-06
-5.29429e-07
-7.07635e-06
-5.25003e-07
-7.16402e-06
-5.17906e-07
-7.25081e-06
-5.08e-07
-7.33624e-06
-4.95152e-07
-7.41984e-06
-4.79237e-07
-7.50108e-06
-4.60143e-07
-7.57943e-06
-4.37772e-07
-7.65432e-06
-4.12049e-07
-7.72516e-06
-3.82918e-07
-7.79136e-06
-3.5035e-07
-7.85227e-06
-3.14342e-07
-7.90724e-06
-2.74915e-07
-7.95561e-06
-2.32115e-07
-7.99671e-06
-1.86087e-07
-8.02991e-06
-1.37061e-07
-8.05461e-06
-8.52715e-08
-8.07025e-06
-3.09285e-08
-8.07632e-06
2.5784e-08
-8.07239e-06
8.46285e-08
-8.05806e-06
1.45234e-07
-8.03298e-06
2.072e-07
-7.99676e-06
2.70105e-07
-7.94903e-06
3.335e-07
-7.88952e-06
3.96876e-07
-7.81803e-06
4.59696e-07
-7.73451e-06
5.21409e-07
-7.63905e-06
5.81456e-07
-7.53185e-06
6.39231e-07
-7.41316e-06
6.94119e-07
-7.2834e-06
7.45532e-07
-7.14309e-06
7.92907e-07
-6.9929e-06
8.35694e-07
-6.83356e-06
8.7337e-07
-6.66592e-06
9.05444e-07
-6.49091e-06
9.31452e-07
-6.30954e-06
9.50969e-07
-6.12292e-06
9.63614e-07
-5.93222e-06
9.69059e-07
-5.73869e-06
9.6703e-07
-5.54367e-06
9.5732e-07
-5.34851e-06
9.39788e-07
-5.15467e-06
9.14365e-07
-4.96363e-06
8.81049e-07
-4.77693e-06
8.3991e-07
-4.59618e-06
7.91088e-07
-4.42295e-06
7.34716e-07
-4.25878e-06
6.70713e-07
-4.10481e-06
5.9859e-07
-3.96141e-06
5.17779e-07
-3.8287e-06
4.28157e-07
-3.70782e-06
3.29817e-07
-3.60081e-06
2.22794e-07
-3.50926e-06
1.07053e-07
-3.43431e-06
-1.74827e-08
-3.37723e-06
-1.50966e-07
-3.3397e-06
-2.94024e-07
-3.32288e-06
-4.47304e-07
-3.32844e-06
-6.11492e-07
-3.35786e-06
-7.87248e-07
-3.41278e-06
-9.75218e-07
-3.49522e-06
-1.17603e-06
-3.60767e-06
-1.39028e-06
-3.75333e-06
-1.61852e-06
-3.9365e-06
-1.86147e-06
-4.1627e-06
-2.12095e-06
-4.43967e-06
-2.3891e-06
-4.80153e-06
-2.66779e-06
-5.40945e-06
-2.94032e-06
-6.74762e-06
-3.63744e-06
-1.02723e-05
-4.2122e-06
-1.02154e-05
-5.64639e-06
-1.095e-05
-7.39374e-06
-6.0716e-06
-8.91553e-06
-5.2429e-06
-1.01869e-05
-5.03228e-06
-1.11757e-05
-4.29182e-06
-1.18918e-05
-3.57307e-06
-1.23655e-05
-2.70927e-06
-1.26378e-05
-1.8421e-06
-9.3728e-07
-2.90194e-08
-5.35925e-06
-5.82287e-08
-5.40341e-06
-8.73103e-08
-5.41378e-06
-1.16224e-07
-5.42411e-06
-1.44945e-07
-5.43692e-06
-1.73401e-07
-5.45347e-06
-2.01413e-07
-5.4748e-06
-2.28729e-07
-5.50152e-06
-2.55492e-07
-5.53333e-06
-2.81963e-07
-5.5695e-06
-3.08106e-07
-5.60984e-06
-3.33849e-07
-5.65423e-06
-3.59127e-07
-5.70255e-06
-3.83865e-07
-5.75466e-06
-4.07979e-07
-5.81045e-06
-4.3138e-07
-5.86983e-06
-4.53973e-07
-5.93268e-06
-4.75654e-07
-5.99888e-06
-4.96312e-07
-6.06828e-06
-5.15826e-07
-6.14074e-06
-5.34074e-07
-6.21608e-06
-5.5093e-07
-6.29413e-06
-5.6626e-07
-6.37469e-06
-5.79925e-07
-6.45755e-06
-5.91779e-07
-6.54245e-06
-6.01669e-07
-6.62914e-06
-6.09437e-07
-6.71734e-06
-6.1492e-07
-6.80675e-06
-6.1795e-07
-6.89702e-06
-6.18358e-07
-6.98781e-06
-6.15972e-07
-7.07873e-06
-6.10621e-07
-7.16937e-06
-6.02137e-07
-7.25929e-06
-5.90357e-07
-7.34802e-06
-5.75125e-07
-7.43507e-06
-5.56296e-07
-7.51991e-06
-5.33737e-07
-7.60198e-06
-5.07337e-07
-7.68072e-06
-4.77005e-07
-7.75549e-06
-4.42676e-07
-7.82568e-06
-4.04316e-07
-7.89063e-06
-3.6192e-07
-7.94963e-06
-3.15517e-07
-8.00201e-06
-2.65167e-07
-8.04706e-06
-2.10984e-07
-8.08409e-06
-1.53132e-07
-8.11246e-06
-9.18116e-08
-8.13157e-06
-2.72663e-08
-8.14087e-06
4.02128e-08
-8.13987e-06
1.10262e-07
-8.12811e-06
1.82428e-07
-8.10515e-06
2.56231e-07
-8.07057e-06
3.31161e-07
-8.02397e-06
4.06668e-07
-7.96503e-06
4.82169e-07
-7.89353e-06
5.57033e-07
-7.80938e-06
6.30594e-07
-7.71262e-06
7.02146e-07
-7.6034e-06
7.70961e-07
-7.48198e-06
8.36307e-07
-7.34874e-06
8.97482e-07
-7.20427e-06
9.53801e-07
-7.04922e-06
1.00461e-06
-6.88436e-06
1.0493e-06
-6.71061e-06
1.08732e-06
-6.52893e-06
1.11817e-06
-6.34039e-06
1.14137e-06
-6.14612e-06
1.1565e-06
-5.94735e-06
1.16318e-06
-5.74538e-06
1.16112e-06
-5.5416e-06
1.15007e-06
-5.33747e-06
1.12989e-06
-5.13449e-06
1.10049e-06
-4.93423e-06
1.06188e-06
-4.73832e-06
1.0141e-06
-4.5484e-06
9.57242e-07
-4.3661e-06
8.91318e-07
-4.19285e-06
8.16088e-07
-4.02957e-06
7.31163e-07
-3.87649e-06
6.36414e-07
-3.73395e-06
5.32011e-07
-3.60342e-06
4.17986e-07
-3.48679e-06
2.9424e-07
-3.38551e-06
1.6069e-07
-3.30076e-06
1.72005e-08
-3.23374e-06
-1.36774e-07
-3.18573e-06
-3.01706e-07
-3.15795e-06
-4.78444e-07
-3.1517e-06
-6.6793e-07
-3.16837e-06
-8.71208e-07
-3.20951e-06
-1.08944e-06
-3.27698e-06
-1.32392e-06
-3.37319e-06
-1.57606e-06
-3.50119e-06
-1.84754e-06
-3.66502e-06
-2.14051e-06
-3.86973e-06
-2.45746e-06
-4.12272e-06
-2.79342e-06
-4.46556e-06
-3.15196e-06
-5.05091e-06
-3.53185e-06
-6.36773e-06
-4.32083e-06
-9.48329e-06
-4.9465e-06
-9.58978e-06
-6.08033e-06
-9.81615e-06
-7.34971e-06
-4.80222e-06
-8.52163e-06
-4.07097e-06
-9.5274e-06
-4.02652e-06
-1.03472e-05
-3.47206e-06
-1.09667e-05
-2.95355e-06
-1.14018e-05
-2.2742e-06
-1.16696e-05
-1.57425e-06
-8.12006e-07
-3.31492e-08
-5.32611e-06
-6.65422e-08
-5.37001e-06
-9.98332e-08
-5.38049e-06
-1.32971e-07
-5.39098e-06
-1.6591e-07
-5.40398e-06
-1.9849e-07
-5.42089e-06
-2.30315e-07
-5.44298e-06
-2.61349e-07
-5.47049e-06
-2.92047e-07
-5.50263e-06
-3.22461e-07
-5.53909e-06
-3.52469e-07
-5.57983e-06
-3.82001e-07
-5.6247e-06
-4.10986e-07
-5.67357e-06
-4.39339e-07
-5.7263e-06
-4.6697e-07
-5.78282e-06
-4.93776e-07
-5.84302e-06
-5.19653e-07
-5.9068e-06
-5.44482e-07
-5.97405e-06
-5.68141e-07
-6.04462e-06
-5.90497e-07
-6.11838e-06
-6.11409e-07
-6.19517e-06
-6.30733e-07
-6.27481e-06
-6.48316e-07
-6.35711e-06
-6.63997e-07
-6.44186e-06
-6.77608e-07
-6.52884e-06
-6.88974e-07
-6.61778e-06
-6.97912e-07
-6.70841e-06
-7.04233e-07
-6.80043e-06
-7.07745e-07
-6.89351e-06
-7.08251e-07
-6.98731e-06
-7.05553e-07
-7.08143e-06
-6.99453e-07
-7.17547e-06
-6.89754e-07
-7.26899e-06
-6.76268e-07
-7.36151e-06
-6.5881e-07
-7.45253e-06
-6.37212e-07
-7.54151e-06
-6.11319e-07
-7.62788e-06
-5.80997e-07
-7.71104e-06
-5.46135e-07
-7.79035e-06
-5.06653e-07
-7.86516e-06
-4.625e-07
-7.93478e-06
-4.1366e-07
-7.99847e-06
-3.60154e-07
-8.05551e-06
-3.02042e-07
-8.10517e-06
-2.3943e-07
-8.1467e-06
-1.72474e-07
-8.17942e-06
-1.01387e-07
-8.20266e-06
-2.64476e-08
-8.21581e-06
5.19933e-08
-8.21831e-06
1.335e-07
-8.20961e-06
2.17567e-07
-8.18922e-06
3.03631e-07
-8.15663e-06
3.91087e-07
-8.11142e-06
4.79287e-07
-8.05323e-06
5.67542e-07
-7.98179e-06
6.55121e-07
-7.89696e-06
7.41231e-07
-7.79873e-06
8.25044e-07
-7.68721e-06
9.05716e-07
-7.56265e-06
9.82399e-07
-7.42543e-06
1.05423e-06
-7.2761e-06
1.12037e-06
-7.11535e-06
1.18001e-06
-6.944e-06
1.23243e-06
-6.76303e-06
1.27698e-06
-6.57349e-06
1.31311e-06
-6.37652e-06
1.34032e-06
-6.17333e-06
1.35818e-06
-5.9652e-06
1.3663e-06
-5.75349e-06
1.36434e-06
-5.53964e-06
1.35206e-06
-5.32519e-06
1.32929e-06
-5.11172e-06
1.29594e-06
-4.90088e-06
1.25199e-06
-4.69437e-06
1.19748e-06
-4.49388e-06
1.13243e-06
-4.30105e-06
1.05676e-06
-4.11718e-06
9.70252e-07
-3.94306e-06
8.72767e-07
-3.779e-06
7.64481e-07
-3.62567e-06
6.45628e-07
-3.48456e-06
5.16191e-07
-3.35735e-06
3.76042e-07
-3.24536e-06
2.25033e-07
-3.14975e-06
6.28463e-08
-3.07155e-06
-1.11025e-07
-3.01185e-06
-2.97226e-07
-2.97175e-06
-4.9673e-07
-2.9522e-06
-7.10697e-07
-2.95441e-06
-9.4051e-07
-2.97969e-06
-1.18779e-06
-3.0297e-06
-1.45441e-06
-3.10658e-06
-1.7425e-06
-3.2131e-06
-2.0547e-06
-3.35282e-06
-2.3944e-06
-3.53003e-06
-2.76457e-06
-3.75256e-06
-3.16326e-06
-4.06688e-06
-3.5949e-06
-4.61927e-06
-4.0751e-06
-5.88752e-06
-4.95785e-06
-8.60054e-06
-5.6272e-06
-8.92042e-06
-6.51418e-06
-8.92917e-06
-7.4331e-06
-3.88329e-06
-8.29368e-06
-3.21039e-06
-9.0707e-06
-3.24949e-06
-9.72088e-06
-2.82188e-06
-1.02331e-05
-2.44137e-06
-1.06067e-05
-1.90055e-06
-1.08486e-05
-1.33242e-06
-6.94614e-07
-3.73416e-08
-5.28876e-06
-7.49742e-08
-5.33238e-06
-1.12524e-07
-5.34295e-06
-1.49933e-07
-5.35357e-06
-1.87113e-07
-5.3668e-06
-2.23694e-07
-5.38431e-06
-2.59239e-07
-5.40743e-06
-2.94283e-07
-5.43545e-06
-3.29071e-07
-5.46784e-06
-3.63484e-07
-5.50468e-06
-3.9743e-07
-5.54588e-06
-4.30833e-07
-5.5913e-06
-4.63612e-07
-5.64079e-06
-4.95673e-07
-5.69424e-06
-5.26917e-07
-5.75158e-06
-5.57233e-07
-5.81271e-06
-5.86504e-07
-5.87753e-06
-6.14601e-07
-5.94595e-06
-6.41387e-07
-6.01784e-06
-6.66716e-07
-6.09305e-06
-6.90433e-07
-6.17145e-06
-7.12374e-07
-6.25287e-06
-7.32366e-07
-6.33712e-06
-7.50228e-07
-6.424e-06
-7.65769e-07
-6.5133e-06
-7.7879e-07
-6.60475e-06
-7.89084e-07
-6.69811e-06
-7.96436e-07
-6.79307e-06
-8.00627e-07
-6.88932e-06
-8.01432e-07
-6.9865e-06
-7.98623e-07
-7.08424e-06
-7.91972e-07
-7.18212e-06
-7.81255e-07
-7.27971e-06
-7.6625e-07
-7.37651e-06
-7.46745e-07
-7.47203e-06
-7.22542e-07
-7.56571e-06
-6.93457e-07
-7.65696e-06
-6.5933e-07
-7.74516e-06
-6.20026e-07
-7.82966e-06
-5.75438e-07
-7.90975e-06
-5.25497e-07
-7.98471e-06
-4.70168e-07
-8.0538e-06
-4.09459e-07
-8.11622e-06
-3.43422e-07
-8.1712e-06
-2.72162e-07
-8.21796e-06
-1.95843e-07
-8.25573e-06
-1.14697e-07
-8.2838e-06
-2.90385e-08
-8.30147e-06
6.07333e-08
-8.30808e-06
1.54131e-07
-8.30301e-06
2.50583e-07
-8.28567e-06
3.49452e-07
-8.25551e-06
4.50042e-07
-8.21202e-06
5.51594e-07
-8.15478e-06
6.5331e-07
-8.08351e-06
7.54321e-07
-7.99797e-06
8.53723e-07
-7.89813e-06
9.50564e-07
-7.78405e-06
1.04388e-06
-7.65597e-06
1.1327e-06
-7.51425e-06
1.21603e-06
-7.35943e-06
1.29288e-06
-7.19221e-06
1.3623e-06
-7.01342e-06
1.42338e-06
-6.82411e-06
1.47531e-06
-6.62541e-06
1.51741e-06
-6.41862e-06
1.54915e-06
-6.20508e-06
1.5701e-06
-5.98615e-06
1.57987e-06
-5.76327e-06
1.57816e-06
-5.53793e-06
1.56471e-06
-5.31174e-06
1.53936e-06
-5.08636e-06
1.50201e-06
-4.86353e-06
1.45264e-06
-4.64499e-06
1.39125e-06
-4.4325e-06
1.31785e-06
-4.22764e-06
1.23234e-06
-4.03167e-06
1.13463e-06
-3.84535e-06
1.02482e-06
-3.66919e-06
9.0323e-07
-3.50408e-06
7.70111e-07
-3.35144e-06
6.2547e-07
-3.21271e-06
4.69189e-07
-3.08908e-06
3.01049e-07
-2.98161e-06
1.20662e-07
-2.89117e-06
-7.25006e-08
-2.81869e-06
-2.79169e-07
-2.76508e-06
-5.00455e-07
-2.73091e-06
-7.37693e-07
-2.71717e-06
-9.92551e-07
-2.72483e-06
-1.26703e-06
-2.75522e-06
-1.56346e-06
-2.81015e-06
-1.88463e-06
-2.89193e-06
-2.234e-06
-3.00344e-06
-2.61599e-06
-3.14805e-06
-3.03402e-06
-3.33453e-06
-3.48901e-06
-3.61188e-06
-3.98609e-06
-4.12219e-06
-4.55847e-06
-5.31515e-06
-5.53311e-06
-7.6259e-06
-6.23863e-06
-8.2149e-06
-6.9212e-06
-8.24659e-06
-7.56073e-06
-3.24376e-06
-8.15618e-06
-2.61493e-06
-8.74068e-06
-2.66499e-06
-9.23659e-06
-2.32597e-06
-9.64541e-06
-2.03255e-06
-9.95232e-06
-1.59364e-06
-1.01595e-05
-1.12526e-06
-5.9132e-07
-4.1586e-08
-5.24718e-06
-8.35058e-08
-5.29046e-06
-1.25355e-07
-5.3011e-06
-1.67076e-07
-5.31185e-06
-2.08461e-07
-5.32541e-06
-2.4889e-07
-5.34388e-06
-2.88453e-07
-5.36787e-06
-3.27693e-07
-5.39621e-06
-3.66618e-07
-5.42892e-06
-4.05102e-07
-5.46619e-06
-4.43066e-07
-5.50792e-06
-4.80427e-07
-5.55394e-06
-5.17093e-07
-5.60412e-06
-5.52963e-07
-5.65837e-06
-5.87927e-07
-5.71662e-06
-6.21867e-07
-5.77877e-06
-6.54655e-07
-5.84475e-06
-6.86151e-07
-5.91446e-06
-7.16205e-07
-5.98778e-06
-7.44657e-07
-6.0646e-06
-7.71336e-07
-6.14477e-06
-7.96061e-07
-6.22814e-06
-8.18639e-07
-6.31454e-06
-8.38868e-07
-6.40377e-06
-8.56534e-07
-6.49563e-06
-8.71415e-07
-6.58987e-06
-8.83277e-07
-6.68625e-06
-8.91879e-07
-6.78447e-06
-8.96973e-07
-6.88423e-06
-8.98303e-07
-6.98517e-06
-8.95611e-07
-7.08693e-06
-8.88638e-07
-7.1891e-06
-8.77124e-07
-7.29122e-06
-8.60816e-07
-7.39282e-06
-8.39467e-07
-7.49338e-06
-8.12845e-07
-7.59233e-06
-7.80734e-07
-7.68907e-06
-7.4294e-07
-7.78295e-06
-6.99296e-07
-7.8733e-06
-6.49667e-07
-7.95938e-06
-5.93956e-07
-8.04042e-06
-5.32105e-07
-8.11564e-06
-4.64105e-07
-8.18422e-06
-3.89998e-07
-8.2453e-06
-3.09886e-07
-8.29807e-06
-2.23943e-07
-8.34168e-06
-1.3242e-07
-8.37532e-06
-3.5663e-08
-8.39822e-06
6.58873e-08
-8.40963e-06
1.71693e-07
-8.40882e-06
2.81122e-07
-8.3951e-06
3.93457e-07
-8.36784e-06
5.07905e-07
-8.32646e-06
6.23605e-07
-8.27048e-06
7.39614e-07
-8.19952e-06
8.54953e-07
-8.11331e-06
9.68566e-07
-8.01174e-06
1.07937e-06
-7.89486e-06
1.18624e-06
-7.76285e-06
1.28807e-06
-7.61608e-06
1.38374e-06
-7.45509e-06
1.47212e-06
-7.2806e-06
1.55216e-06
-7.09346e-06
1.6228e-06
-6.89474e-06
1.68304e-06
-6.68566e-06
1.73202e-06
-6.46761e-06
1.76906e-06
-6.24211e-06
1.79364e-06
-6.01073e-06
1.80541e-06
-5.77504e-06
1.80412e-06
-5.53664e-06
1.78956e-06
-5.29717e-06
1.76158e-06
-5.05839e-06
1.72013e-06
-4.82207e-06
1.66517e-06
-4.59003e-06
1.59672e-06
-4.36405e-06
1.51479e-06
-4.1457e-06
1.41937e-06
-3.93625e-06
1.31052e-06
-3.7365e-06
1.1885e-06
-3.54717e-06
1.05372e-06
-3.3693e-06
9.06454e-07
-3.20417e-06
7.46769e-07
-3.05302e-06
5.74581e-07
-2.91689e-06
3.8966e-07
-2.79669e-06
1.91635e-07
-2.69314e-06
-2.01563e-08
-2.6069e-06
-2.46342e-07
-2.53889e-06
-4.88188e-07
-2.48906e-06
-7.47157e-07
-2.4582e-06
-1.02513e-06
-2.44686e-06
-1.3244e-06
-2.45595e-06
-1.64767e-06
-2.48688e-06
-1.99827e-06
-2.54133e-06
-2.3804e-06
-2.6213e-06
-2.79921e-06
-2.72923e-06
-3.25874e-06
-2.875e-06
-3.76243e-06
-3.10819e-06
-4.31646e-06
-3.56815e-06
-4.9706e-06
-4.66101e-06
-6.03377e-06
-6.56273e-06
-6.75874e-06
-7.48992e-06
-7.27056e-06
-7.73476e-06
-7.6902e-06
-2.82411e-06
-8.07011e-06
-2.23501e-06
-8.49155e-06
-2.24354e-06
-8.85172e-06
-1.9658e-06
-9.16443e-06
-1.71984e-06
-9.40588e-06
-1.35218e-06
-9.57596e-06
-9.55176e-07
-5.04131e-07
-4.58751e-08
-5.2013e-06
-9.21223e-08
-5.24422e-06
-1.38303e-07
-5.25492e-06
-1.8436e-07
-5.26579e-06
-2.29911e-07
-5.27987e-06
-2.74188e-07
-5.29961e-06
-3.18046e-07
-5.32401e-06
-3.6161e-07
-5.35264e-06
-4.04743e-07
-5.38579e-06
-4.47379e-07
-5.42356e-06
-4.89446e-07
-5.46585e-06
-5.30855e-07
-5.51253e-06
-5.71507e-07
-5.56347e-06
-6.11292e-07
-5.61859e-06
-6.50093e-07
-5.67782e-06
-6.87783e-07
-5.74108e-06
-7.24222e-07
-5.80831e-06
-7.59261e-07
-5.87942e-06
-7.92739e-07
-5.95431e-06
-8.24479e-07
-6.03286e-06
-8.54297e-07
-6.11496e-06
-8.81992e-07
-6.20045e-06
-9.07354e-07
-6.28918e-06
-9.30158e-07
-6.38097e-06
-9.50169e-07
-6.47562e-06
-9.67139e-07
-6.5729e-06
-9.80809e-07
-6.67258e-06
-9.90907e-07
-6.77437e-06
-9.97157e-07
-6.87798e-06
-9.99271e-07
-6.98306e-06
-9.96957e-07
-7.08925e-06
-9.8992e-07
-7.19613e-06
-9.77865e-07
-7.30328e-06
-9.60501e-07
-7.41019e-06
-9.37543e-07
-7.51634e-06
-9.0872e-07
-7.62115e-06
-8.73777e-07
-7.72401e-06
-8.32481e-07
-7.82425e-06
-7.84627e-07
-7.92115e-06
-7.30045e-07
-8.01395e-06
-6.68604e-07
-8.10186e-06
-6.00218e-07
-8.18403e-06
-5.24854e-07
-8.25958e-06
-4.42541e-07
-8.32761e-06
-3.53375e-07
-8.38723e-06
-2.57533e-07
-8.43752e-06
-1.55285e-07
-8.47757e-06
-4.70024e-08