/*--------------------------------*- C++ -*----------------------------------*\
| =========                 |                                                 |
| \\      /  F ield         | OpenFOAM: The Open Source CFD Toolbox           |
|  \\    /   O peration     | Version:  v2106                                 |
|   \\  /    A nd           | Website:  www.openfoam.com                      |
|    \\/     M anipulation  |                                                 |
\*---------------------------------------------------------------------------*/
FoamFile
{
    version     2.0;
    format      ascii;
    arch        "LSB;label=32;scalar=64";
    class       volVectorField;
    location    "1.1";
    object      U;
}
// * * * * * * * * * * * * * * * * * * * * * * * * * * * * * * * * * * * * * //

dimensions      [0 1 -1 0 0 0 0];

internalField   nonuniform List<vector> 
29678
(
(-0.0457046 1.33399e-23 -3.63206e-05)
(-0.0460748 1.04947e-22 -0.000109362)
(-0.0461487 4.36773e-22 -0.000182749)
(-0.0462225 4.40042e-20 -0.000251921)
(-0.04632 2.74356e-19 -0.000319035)
(-0.0464498 2.76202e-19 -0.000385372)
(-0.046617 2.2098e-19 -0.000451663)
(-0.0468237 2.44742e-19 -0.000518044)
(-0.0470694 -5.04361e-19 -0.000584304)
(-0.0473519 1.81797e-19 -0.000650056)
(-0.0476681 -4.66788e-19 -0.000714821)
(-0.0480159 2.10082e-19 -0.00077782)
(-0.0483947 -4.67608e-19 -0.000837612)
(-0.0488036 2.12802e-19 -0.000893111)
(-0.0492426 -4.60172e-19 -0.000943196)
(-0.049711 2.07768e-19 -0.000989497)
(-0.0502072 -5.04081e-19 -0.00103223)
(-0.0507294 -5.18219e-19 -0.00107228)
(-0.0512742 2.10778e-19 -0.00110966)
(-0.0518409 -5.015e-19 -0.00114541)
(-0.0524294 -4.88911e-19 -0.0011797)
(-0.0530368 -4.87755e-19 -0.00121295)
(-0.0536608 -2.7667e-20 -0.00124519)
(-0.0542991 -1.01953e-19 -0.00127622)
(-0.0549496 -2.08602e-19 -0.00130584)
(-0.0556097 -1.31286e-19 -0.00133385)
(-0.0562771 -1.00001e-19 -0.00136002)
(-0.0569489 3.11295e-19 -0.00138411)
(-0.0576222 -5.04091e-19 -0.00140586)
(-0.0582941 -5.45538e-19 -0.00142502)
(-0.0589611 -5.71164e-19 -0.00144128)
(-0.05962 -3.1875e-20 -0.00145435)
(-0.0602673 -1.33597e-19 -0.00146395)
(-0.0608991 2.15383e-19 -0.00146978)
(-0.0615119 3.63623e-19 -0.00147162)
(-0.0621015 2.52584e-19 -0.00146926)
(-0.0626632 3.4048e-19 -0.00146242)
(-0.063193 2.80542e-19 -0.00145097)
(-0.063687 2.93629e-19 -0.0014344)
(-0.0641405 3.69983e-19 -0.00141252)
(-0.0645484 3.55116e-19 -0.00138456)
(-0.0649058 3.72061e-19 -0.00134964)
(-0.0652085 3.66282e-19 -0.00130756)
(-0.0654521 3.56088e-19 -0.00125799)
(-0.065633 3.45165e-19 -0.00120078)
(-0.0657473 -3.5472e-19 -0.00113591)
(-0.0657917 3.22418e-19 -0.00106344)
(-0.0657629 3.64082e-19 -0.000983636)
(-0.0656584 3.82266e-19 -0.000897038)
(-0.065476 3.66736e-19 -0.000804427)
(-0.0652138 3.47877e-19 -0.00070664)
(-0.0648688 3.73299e-19 -0.000606205)
(-0.0644402 3.92953e-19 -0.000504404)
(-0.0639267 2.3349e-19 -0.000402367)
(-0.0633272 2.62625e-20 -0.000300096)
(-0.0626425 3.60917e-19 -0.000197898)
(-0.0618746 2.34256e-19 -9.63097e-05)
(-0.0610255 3.4218e-19 3.93242e-06)
(-0.060098 2.50509e-19 0.000101988)
(-0.0590959 3.58047e-19 0.000196995)
(-0.0580232 2.42995e-19 0.00028808)
(-0.056885 3.15835e-19 0.000374343)
(-0.055687 2.2656e-19 0.000454905)
(-0.0544357 2.2027e-19 0.000528895)
(-0.0531381 3.04026e-19 0.000595456)
(-0.0518017 3.14187e-19 0.000653758)
(-0.0504344 1.96035e-20 0.000703027)
(-0.0490447 1.5916e-19 0.000742535)
(-0.0476416 -4.69015e-19 0.000771578)
(-0.0462346 1.53901e-19 0.000789479)
(-0.0448336 -1.44316e-19 0.000795507)
(-0.0434489 1.35095e-19 0.000788875)
(-0.0420915 -2.54976e-19 0.000768718)
(-0.0407722 1.4174e-19 0.000734137)
(-0.0395023 -1.5145e-19 0.000684239)
(-0.0382922 -2.17325e-19 0.000618229)
(-0.037152 1.04695e-19 0.000535545)
(-0.0360908 -1.15608e-19 0.000435973)
(-0.0351178 1.09817e-19 0.000319849)
(-0.0342447 -3.7111e-19 0.000188119)
(-0.0334861 8.24435e-20 4.20082e-05)
(-0.0328566 -1.19372e-19 -0.00011806)
(-0.0323674 1.02209e-19 -0.000292483)
(-0.0320275 -2.30585e-19 -0.000484151)
(-0.0318529 -1.66313e-19 -0.00069684)
(-0.0318565 1.16891e-19 -0.000931419)
(-0.0320413 -1.81012e-19 -0.00118541)
(-0.032417 8.71356e-20 -0.00146484)
(-0.0329935 -1.06421e-19 -0.00176976)
(-0.0337734 1.25181e-19 -0.00209226)
(-0.0347624 -4.26141e-19 -0.00242693)
(-0.0359628 -2.66398e-20 -0.00276524)
(-0.0373669 1.33584e-19 -0.00309304)
(-0.0389538 -4.59199e-19 -0.00336991)
(-0.0406679 9.36713e-20 -0.00354626)
(-0.0424649 -4.92176e-19 -0.00360898)
(-0.0442566 8.19167e-20 -0.00263959)
(-0.0453268 -3.98724e-19 -0.00270978)
(-0.0540794 1.07943e-19 0.0037231)
(-0.116367 -3.95177e-19 0.0025831)
(-0.112228 -3.836e-19 -0.00477726)
(-0.233766 1.25643e-19 -0.00881505)
(-0.274895 -1.52884e-19 -0.0864187)
(-0.156796 3.40357e-21 -0.135651)
(-0.145658 -3.10529e-19 -0.147858)
(-0.0911795 -1.39549e-19 -0.171321)
(-0.067296 -5.04191e-20 -0.173589)
(-0.0279321 4.11012e-19 -0.175712)
(-0.00982132 2.20983e-20 -0.167166)
(-0.00116348 -2.99746e-19 -0.160175)
(-0.0455896 1.79277e-23 -4.4814e-05)
(-0.0459597 3.44667e-22 -0.000132743)
(-0.0460372 8.48049e-21 -0.000221329)
(-0.0461149 2.13159e-19 -0.000306399)
(-0.0462144 6.05003e-21 -0.000390114)
(-0.0463447 -2.08005e-21 -0.000473263)
(-0.0465119 4.0963e-21 -0.000556187)
(-0.0467187 2.11142e-19 -0.000638713)
(-0.046965 -2.25811e-19 -0.000720407)
(-0.0472488 -2.19417e-20 -0.000800791)
(-0.0475676 -2.20351e-19 -0.000879367)
(-0.0479206 2.08024e-19 -0.000954596)
(-0.0483065 -2.09118e-19 -0.00102389)
(-0.0487218 -2.49067e-20 -0.00108812)
(-0.0491665 -2.24947e-19 -0.00114762)
(-0.0496408 2.34e-19 -0.00120372)
(-0.0501418 -3.1096e-19 -0.00125688)
(-0.0506678 -3.01544e-19 -0.00130788)
(-0.0512166 4.50216e-19 -0.00135657)
(-0.0517865 -3.42897e-19 -0.00140447)
(-0.0523768 -3.10109e-19 -0.00145033)
(-0.0529859 -3.07699e-19 -0.00149439)
(-0.0536118 -1.31021e-20 -0.00153639)
(-0.0542525 -3.5379e-19 -0.00157589)
(-0.0549056 -3.02542e-20 -0.00161246)
(-0.0555688 -5.82545e-19 -0.0016457)
(-0.0562396 3.6546e-19 -0.00167519)
(-0.0569152 5.84225e-19 -0.0017005)
(-0.0575929 -3.42864e-19 -0.00172119)
(-0.0582695 -3.73644e-19 -0.00173685)
(-0.0589418 -3.73241e-19 -0.00174701)
(-0.0596064 -2.63668e-20 -0.00175125)
(-0.0602597 -6.45295e-19 -0.00174915)
(-0.0608981 -3.07328e-20 -0.00174033)
(-0.0615176 4.00445e-19 -0.00172451)
(-0.0621142 8.37014e-21 -0.00170144)
(-0.0626837 1.4747e-19 -0.00167094)
(-0.0632217 1.65117e-21 -0.00163329)
(-0.0637244 -1.60972e-20 -0.00158808)
(-0.0641865 1.05782e-19 -0.00153528)
(-0.0646028 7.48481e-21 -0.00147441)
(-0.0649704 3.0087e-19 -0.00140452)
(-0.0652852 4.04136e-21 -0.00132454)
(-0.0655415 1.59688e-21 -0.00123352)
(-0.065735 -3.42949e-20 -0.00113189)
(-0.0658618 -6.36292e-19 -0.00101985)
(-0.0659182 -2.53059e-20 -0.000897765)
(-0.0659008 5.48777e-21 -0.000766187)
(-0.0658064 3.05254e-19 -0.000625924)
(-0.0656325 5.77389e-21 -0.000477911)
(-0.0653774 1.58627e-20 -0.000324678)
(-0.0650377 3.60422e-19 -0.000168104)
(-0.0646111 4.12177e-19 -7.74057e-06)
(-0.0640981 -2.82372e-19 0.000156371)
(-0.0634987 1.28992e-21 0.000322352)
(-0.0628136 3.9338e-19 0.00048917)
(-0.0620438 -2.71087e-19 0.000655338)
(-0.0611915 1.10059e-19 0.000819194)
(-0.0602594 8.81028e-22 0.000979023)
(-0.059251 3.77385e-19 0.00113314)
(-0.0581706 3.51494e-21 0.00127985)
(-0.0570231 1.03631e-19 0.00141745)
(-0.0558143 -2.24271e-20 0.0015443)
(-0.0545507 -8.15567e-21 0.00165879)
(-0.0532394 1.183e-19 0.00175938)
(-0.0518879 3.38469e-19 0.00184462)
(-0.0505043 6.00896e-21 0.00191319)
(-0.0490972 -3.01342e-20 0.00196389)
(-0.0476756 -5.21484e-19 0.00199568)
(-0.046249 -3.86304e-20 0.00200765)
(-0.0448274 1.16952e-20 0.00199896)
(-0.043421 -4.17196e-20 0.00196887)
(-0.0420406 -4.75358e-19 0.00191674)
(-0.0406971 -3.05954e-20 0.001842)
(-0.0394018 -1.07042e-21 0.00174423)
(-0.0381656 -4.22206e-19 0.0016232)
(-0.0369987 -2.54736e-20 0.00147901)
(-0.0359109 7.25802e-21 0.00131224)
(-0.0349125 -2.81264e-20 0.00112422)
(-0.0340156 -4.42016e-19 0.000916816)
(-0.0332344 -2.6438e-20 0.000691497)
(-0.0325817 3.93737e-21 0.000447586)
(-0.0320681 -2.55855e-20 0.000183039)
(-0.0317033 -3.7226e-19 -0.000101584)
(-0.0314983 -9.67163e-21 -0.000414053)
(-0.0314627 -2.17512e-20 -0.000766866)
(-0.0316069 -3.82215e-19 -0.00116714)
(-0.0319403 -4.15818e-20 -0.00161424)
(-0.0324778 4.05829e-21 -0.00210057)
(-0.0332282 -3.54847e-20 -0.00262121)
(-0.0341998 -4.90399e-19 -0.00316989)
(-0.0354026 9.18776e-21 -0.0037355)
(-0.0368457 -7.03132e-20 -0.00430259)
(-0.0385372 -4.69779e-19 -0.00482664)
(-0.0404898 -6.66485e-20 -0.00532027)
(-0.0427923 -4.91097e-19 -0.00559629)
(-0.0452296 -5.15607e-20 -0.00551677)
(-0.049851 -4.67383e-19 -0.00563174)
(-0.0587222 -4.48129e-20 -0.00160456)
(-0.107533 8.35023e-20 -0.00254609)
(-0.10435 6.02437e-19 -0.00848465)
(-0.164929 -1.11559e-19 -0.0187041)
(-0.153353 -5.65773e-20 -0.0763905)
(-0.116221 -1.01073e-19 -0.121348)
(-0.104757 -7.53942e-20 -0.131762)
(-0.077609 -3.15645e-20 -0.152639)
(-0.0586886 -2.48553e-20 -0.155454)
(-0.0373938 -2.68562e-20 -0.15799)
(-0.0216244 -4.13614e-19 -0.152247)
(-0.00938142 1.15002e-19 -0.147062)
(-0.0454906 -2.12651e-23 -5.76296e-05)
(-0.0458624 -2.28116e-22 -0.000170422)
(-0.0459424 -2.75685e-21 -0.000283964)
(-0.0460218 -1.31802e-20 -0.000393912)
(-0.0461223 -2.44596e-19 -0.00050284)
(-0.0462532 -2.47711e-19 -0.000611145)
(-0.046421 -1.9581e-19 -0.000718883)
(-0.0466289 -1.91235e-19 -0.000825613)
(-0.0468768 4.30604e-19 -0.000930703)
(-0.0471631 -1.67943e-19 -0.00103386)
(-0.0474857 4.00259e-19 -0.00113356)
(-0.047842 -1.38433e-19 -0.00122708)
(-0.0482311 4.00556e-19 -0.00131692)
(-0.0486521 -2.3889e-19 -0.00140409)
(-0.0491013 4.66694e-19 -0.00148987)
(-0.0495778 -1.84346e-19 -0.00157335)
(-0.0500806 4.89019e-19 -0.00165497)
(-0.0506081 5.23332e-19 -0.0017345)
(-0.0511583 -1.89164e-19 -0.00181126)
(-0.0517301 5.03664e-19 -0.00188445)
(-0.0523227 5.25657e-19 -0.00195367)
(-0.0529347 5.06859e-19 -0.00201884)
(-0.0535639 1.92362e-20 -0.00207964)
(-0.0542083 -4.83888e-20 -0.00213559)
(-0.0548657 2.56729e-19 -0.00218616)
(-0.0555337 -1.70363e-20 -0.00223079)
(-0.0562097 3.34697e-19 -0.00226887)
(-0.0568912 -2.21595e-19 -0.00229982)
(-0.0575752 5.24455e-19 -0.00232299)
(-0.0582587 5.45472e-19 -0.00233776)
(-0.0589384 5.54939e-19 -0.0023435)
(-0.059611 8.98116e-21 -0.00233955)
(-0.0602728 -4.33142e-20 -0.00232529)
(-0.0609201 -3.11355e-19 -0.00230013)
(-0.0615489 -2.76536e-19 -0.00226348)
(-0.0621551 -3.4928e-19 -0.00221477)
(-0.0627342 -2.6546e-19 -0.00215332)
(-0.0632819 -3.52398e-19 -0.00207852)
(-0.0637941 -3.88525e-19 -0.00199011)
(-0.0642664 -2.79167e-19 -0.00188793)
(-0.0646948 -3.72452e-19 -0.00177273)
(-0.0650741 -2.85337e-19 -0.00164557)
(-0.0653988 -3.38196e-19 -0.00150654)
(-0.0656659 -2.92931e-19 -0.00135501)
(-0.0658711 -2.9947e-19 -0.00118952)
(-0.0660092 2.8208e-19 -0.00101052)
(-0.0660764 -3.12182e-19 -0.000818563)
(-0.066069 -3.16971e-19 -0.000614404)
(-0.0659836 -3.20009e-19 -0.000398946)
(-0.0658169 -3.24983e-19 -0.000174017)
(-0.0655665 -3.06782e-19 5.73242e-05)
(-0.0652316 -3.12672e-19 0.000296522)
(-0.0648099 -2.98646e-19 0.000542653)
(-0.0643009 -2.93914e-19 0.000793191)
(-0.0637037 -2.56373e-20 0.00104589)
(-0.0630187 -2.77037e-19 0.00129869)
(-0.062247 -2.76692e-19 0.00154933)
(-0.0613906 -2.74489e-19 0.00179539)
(-0.0604523 -2.9956e-19 0.00203437)
(-0.0594355 -2.78708e-19 0.00226383)
(-0.0583445 -2.70568e-19 0.00248129)
(-0.0571843 -2.44732e-19 0.00268428)
(-0.0559609 -2.80375e-19 0.00287036)
(-0.0546807 -2.44227e-19 0.00303718)
(-0.0533508 -2.4504e-19 0.00318246)
(-0.0519792 -2.60159e-19 0.00330405)
(-0.0505738 -2.05397e-20 0.00339995)
(-0.0491435 -1.9597e-19 0.00346841)
(-0.0476975 4.38768e-19 0.00350786)
(-0.0462456 -2.10388e-19 0.00351699)
(-0.0447977 1.8596e-19 0.00349467)
(-0.0433644 -1.74104e-19 0.00343999)
(-0.0419564 2.05967e-19 0.00335229)
(-0.0405851 -2.03568e-19 0.00323109)
(-0.0392619 2.01167e-19 0.0030762)
(-0.037998 1.78048e-19 0.00288775)
(-0.0368042 -1.61967e-19 0.00266634)
(-0.0356912 1.60099e-19 0.00241345)
(-0.0346699 -1.62621e-19 0.0021315)
(-0.0337529 3.37456e-19 0.00182253)
(-0.0329525 -1.42413e-19 0.00148549)
(-0.0322784 1.85562e-19 0.00111631)
(-0.0317387 -1.79349e-19 0.000708907)
(-0.0313394 1.28784e-19 0.000257954)
(-0.0310855 2.37065e-19 -0.00024168)
(-0.0309913 -1.96228e-19 -0.000797644)
(-0.0310793 1.18606e-19 -0.00141016)
(-0.0313664 -1.83318e-19 -0.00207267)
(-0.0318629 1.7134e-19 -0.0027813)
(-0.0325773 -1.98308e-19 -0.0035339)
(-0.0335211 3.73976e-19 -0.00432572)
(-0.0347086 3.12921e-20 -0.00514844)
(-0.0361569 -1.89776e-19 -0.00598939)
(-0.0378862 4.28561e-19 -0.00681121)
(-0.0399288 -1.39538e-19 -0.00766532)
(-0.0423758 4.52433e-19 -0.00821771)
(-0.0451525 -1.23455e-19 -0.00896794)
(-0.0500657 2.97854e-19 -0.00909888)
(-0.0597819 -7.5798e-21 -0.00794853)
(-0.103471 4.67022e-19 -0.00882341)
(-0.101396 4.6424e-19 -0.0129746)
(-0.152322 -1.60902e-19 -0.0259638)
(-0.136467 1.10925e-19 -0.0595101)
(-0.104449 -3.71576e-20 -0.0922185)
(-0.0939399 2.09268e-19 -0.107818)
(-0.0706219 4.67227e-21 -0.126185)
(-0.0533202 -4.79546e-20 -0.133115)
(-0.0346804 -1.87573e-19 -0.138521)
(-0.0202513 1.81374e-19 -0.138409)
(-0.00895033 2.50196e-19 -0.137574)
(-0.0453621 -4.70962e-23 -7.26498e-05)
(-0.0457348 -7.98457e-22 -0.000215212)
(-0.045817 -1.50671e-20 -0.000359143)
(-0.045898 -1.97878e-19 -0.000498889)
(-0.0459996 2.16769e-19 -0.000637567)
(-0.0461315 2.1034e-19 -0.000775399)
(-0.0463005 2.17944e-19 -0.00091229)
(-0.0465099 -1.63321e-21 -0.00104762)
(-0.0467603 -1.5093e-19 -0.00118094)
(-0.0470498 2.29629e-19 -0.00131158)
(-0.0473761 -1.96732e-19 -0.00143603)
(-0.0477368 -2.20021e-20 -0.00155754)
(-0.0481298 -2.00898e-19 -0.00167873)
(-0.0485519 1.93195e-19 -0.0017972)
(-0.0490023 -1.93987e-19 -0.0019133)
(-0.0494807 -2.3199e-20 -0.00202667)
(-0.0499859 -1.99328e-19 -0.00213719)
(-0.0505163 -2.61766e-19 -0.00224439)
(-0.0510704 -2.63436e-19 -0.00234753)
(-0.0516468 -2.26884e-19 -0.00244575)
(-0.0522444 -2.49104e-19 -0.00253841)
(-0.0528616 -2.30066e-19 -0.00262503)
(-0.0534966 3.58177e-21 -0.00270508)
(-0.0541474 2.57722e-19 -0.00277796)
(-0.0548117 -2.14561e-19 -0.00284298)
(-0.0554873 4.7824e-19 -0.00289943)
(-0.0561717 -5.18495e-19 -0.00294656)
(-0.0568622 -2.7153e-19 -0.0029836)
(-0.0575559 -2.27572e-19 -0.00300975)
(-0.0582498 -2.5943e-19 -0.0030242)
(-0.0589408 -2.72764e-19 -0.00302612)
(-0.0596252 2.0038e-20 -0.0030147)
(-0.0602997 5.8831e-19 -0.00298912)
(-0.0609603 2.65097e-19 -0.00294858)
(-0.0616031 1.354e-20 -0.00289231)
(-0.0622239 2.76945e-19 -0.00281954)
(-0.0628184 3.22415e-19 -0.00272952)
(-0.0633823 3.08104e-19 -0.00262152)
(-0.0639109 2.81475e-19 -0.00249499)
(-0.0643995 3.41341e-19 -0.00234944)
(-0.0648432 2.80909e-19 -0.00218445)
(-0.0652374 1.48206e-20 -0.00199982)
(-0.065578 2.85964e-19 -0.00179632)
(-0.06586 3.3653e-19 -0.00157654)
(-0.0660789 3.18465e-19 -0.00134098)
(-0.0662315 3.47125e-19 -0.00108905)
(-0.0663132 3.28344e-19 -0.000821031)
(-0.066319 3.20845e-19 -0.000538017)
(-0.0662443 1.54126e-20 -0.000241778)
(-0.0660864 2.79256e-19 6.47161e-05)
(-0.0658442 3.50587e-19 0.000381)
(-0.0655164 1.27506e-20 0.000707619)
(-0.0651003 1.41249e-20 0.00104175)
(-0.0645945 5.83727e-19 0.0013809)
(-0.0639983 3.13898e-20 0.00172237)
(-0.0633117 1.59953e-20 0.00206326)
(-0.0625358 5.84252e-19 0.00240048)
(-0.0616722 3.22271e-19 0.00273085)
(-0.0607239 2.73618e-19 0.00305112)
(-0.0596944 1.45872e-20 0.00335808)
(-0.0585877 2.66558e-19 0.00364842)
(-0.0574091 2.84345e-19 0.0039189)
(-0.0561644 2.45753e-19 0.00416635)
(-0.0548602 2.76055e-19 0.00438766)
(-0.0535039 2.76615e-19 0.00457987)
(-0.0521033 -1.37694e-20 0.00474014)
(-0.0506669 -1.2958e-20 0.00486587)
(-0.0492036 2.15172e-19 0.00495471)
(-0.047723 4.23992e-20 0.0050046)
(-0.0462349 2.21681e-19 0.00501378)
(-0.0447499 -1.89536e-19 0.0049808)
(-0.0432786 1.95366e-19 0.00490454)
(-0.0418321 2.31271e-19 0.00478427)
(-0.0404221 2.26901e-19 0.00461957)
(-0.0390603 -1.73858e-19 0.00441047)
(-0.0377586 1.98224e-19 0.00415747)
(-0.0365284 1.85573e-19 0.00386179)
(-0.0353814 -1.56558e-19 0.00352575)
(-0.0343291 1.51618e-19 0.00315177)
(-0.0333803 6.02627e-20 0.00273961)
(-0.0325417 1.34715e-19 0.0022823)
(-0.0318207 -1.2591e-19 0.00177213)
(-0.0312254 1.29415e-19 0.00120542)
(-0.0307663 2.31453e-19 0.000580081)
(-0.0304562 -9.73558e-20 -0.000102239)
(-0.0303112 1.39443e-19 -0.000840122)
(-0.0303496 2.36749e-19 -0.00163516)
(-0.0305853 1.2927e-19 -0.00248824)
(-0.0310298 -1.39423e-19 -0.00340052)
(-0.0316945 1.71765e-19 -0.00437194)
(-0.0325935 5.20496e-20 -0.00540044)
(-0.033745 -4.0799e-21 -0.00648185)
(-0.0351715 2.33947e-19 -0.00760756)
(-0.0369022 7.15132e-20 -0.0087534)
(-0.0389798 1.96488e-19 -0.00999005)
(-0.0414944 8.10386e-20 -0.0109319)
(-0.0445111 2.40619e-19 -0.0124767)
(-0.0496479 2.58774e-19 -0.0127514)
(-0.0600855 7.04613e-20 -0.0137448)
(-0.0989089 -2.38244e-19 -0.0147412)
(-0.0965672 -3.55819e-20 -0.0184827)
(-0.125073 4.09975e-20 -0.0299225)
(-0.0931734 -1.22313e-19 -0.0545501)
(-0.0790909 1.36469e-19 -0.0826922)
(-0.0718105 1.42925e-20 -0.0954564)
(-0.0582791 -1.23429e-19 -0.111674)
(-0.0459466 -1.19762e-19 -0.118054)
(-0.0327756 3.50067e-19 -0.123924)
(-0.0209209 8.48011e-20 -0.125255)
(-0.0101158 -2.75377e-19 -0.125791)
(-0.0452029 -2.79938e-23 -8.85359e-05)
(-0.0455755 -4.20001e-22 -0.000262851)
(-0.0456597 -7.39372e-21 -0.000439716)
(-0.0457423 -4.09043e-20 -0.000611936)
(-0.0458452 1.57289e-20 -0.000783001)
(-0.0459784 1.3848e-20 -0.000952955)
(-0.0461489 5.29308e-21 -0.00112157)
(-0.0463606 -4.0353e-20 -0.0012882)
(-0.0466143 2.261e-20 -0.00145263)
(-0.0469075 6.93152e-21 -0.00161101)
(-0.0472373 -5.06596e-20 -0.00176559)
(-0.0476006 2.30806e-20 -0.00192025)
(-0.0479949 1.61331e-20 -0.00207187)
(-0.0484193 7.02479e-21 -0.00222069)
(-0.0488727 -4.02542e-20 -0.00236638)
(-0.0493544 8.65025e-21 -0.00250839)
(-0.0498633 1.08493e-20 -0.00264625)
(-0.0503981 -2.18341e-20 -0.00277936)
(-0.0509574 -9.13252e-21 -0.00290697)
(-0.0515399 -2.82609e-20 -0.00302828)
(-0.0521442 -2.7713e-20 -0.0031425)
(-0.0527687 1.55725e-20 -0.00324894)
(-0.0534116 3.49121e-20 -0.00334685)
(-0.054071 9.09905e-21 -0.00343546)
(-0.0547448 -4.74101e-21 -0.00351393)
(-0.0554307 9.64222e-21 -0.00358136)
(-0.0561261 -5.73793e-20 -0.00363683)
(-0.0568286 1.3336e-20 -0.0036794)
(-0.0575352 -1.28619e-20 -0.00370807)
(-0.0582429 -9.31317e-21 -0.00372185)
(-0.0589485 1.30598e-20 -0.00371973)
(-0.0596485 4.11391e-20 -0.00370069)
(-0.0603395 3.349e-20 -0.00366374)
(-0.0610175 -9.5797e-21 -0.00360789)
(-0.0616785 2.0878e-20 -0.00353219)
(-0.0623184 1.336e-20 -0.00343572)
(-0.0629327 3.3071e-20 -0.00331762)
(-0.0635171 4.48461e-21 -0.00317713)
(-0.0640668 -5.29445e-21 -0.00301359)
(-0.064577 6.14141e-20 -0.00282648)
(-0.0650427 1.43212e-20 -0.00261541)
(-0.0654588 5.73405e-20 -0.00238012)
(-0.0658199 1.4727e-20 -0.00212054)
(-0.0661211 9.22183e-20 -0.00183695)
(-0.0663589 1.22208e-20 -0.00153144)
(-0.0665289 -4.41013e-20 -0.00120568)
(-0.0666261 1.05731e-19 -0.000861409)
(-0.066646 1.37205e-20 -0.000500229)
(-0.0665846 6.98387e-20 -0.000123318)
(-0.0664391 1.33206e-20 0.000268409)
(-0.0662086 1.32369e-19 0.000674219)
(-0.0658903 9.81761e-20 0.00109156)
(-0.0654811 6.3211e-20 0.00151735)
(-0.0649793 2.33003e-20 0.00194857)
(-0.0643839 -1.31304e-20 0.0023819)
(-0.0636947 3.59565e-20 0.00281368)
(-0.0629126 2.57382e-20 0.00324006)
(-0.0620393 5.03037e-20 0.00365725)
(-0.0610775 1.27572e-20 0.00406132)
(-0.0600308 2.07127e-20 0.00444812)
(-0.0589034 1.2748e-20 0.00481349)
(-0.0577003 3.11512e-20 0.00515345)
(-0.0564278 -4.28074e-20 0.00546411)
(-0.0550923 3.31155e-20 0.00574167)
(-0.0537016 7.70208e-20 0.00598249)
(-0.0522635 2.11092e-20 0.00618313)
(-0.0507868 -2.69647e-20 0.0063404)
(-0.0492807 2.59685e-20 0.00645141)
(-0.0477552 8.67517e-21 0.00651363)
(-0.0462206 1.18598e-20 0.00652489)
(-0.0446875 -3.64548e-21 0.00648346)
(-0.0431671 -2.20964e-20 0.00638803)
(-0.0416711 -2.07567e-22 0.00623781)
(-0.0402113 3.04134e-20 0.00603245)
(-0.0388003 1.67911e-20 0.00577216)
(-0.0374503 -2.88731e-20 0.00545776)
(-0.0361738 2.24624e-20 0.00509086)
(-0.0349829 -4.59234e-22 0.00467359)
(-0.0338863 -3.93013e-21 0.00420615)
(-0.0328866 -2.9926e-20 0.00368393)
(-0.0319874 -9.44957e-22 0.00309892)
(-0.0312023 3.7221e-21 0.00244742)
(-0.0305454 -6.24129e-21 0.00173049)
(-0.0300276 -5.46703e-20 0.000949075)
(-0.0296601 2.60967e-21 0.000105328)
(-0.0294574 6.2469e-21 -0.000800681)
(-0.0294344 -1.79559e-20 -0.0017734)
(-0.0296054 -1.43767e-20 -0.00281621)
(-0.0299828 1.36217e-21 -0.00393267)
(-0.0305798 2.66377e-21 -0.00512545)
(-0.0314124 -4.59399e-20 -0.00639605)
(-0.0325009 7.23183e-20 -0.00774515)
(-0.0338709 -2.18498e-20 -0.00916935)
(-0.0355569 -9.12429e-21 -0.0106604)
(-0.0376057 6.55245e-21 -0.0122904)
(-0.0400973 1.38753e-20 -0.0136729)
(-0.0431928 6.50579e-20 -0.0159262)
(-0.048371 -3.14795e-20 -0.0165081)
(-0.0593394 -1.27517e-19 -0.0192683)
(-0.0941076 5.88495e-20 -0.0204053)
(-0.0923518 4.98085e-18 -0.0245933)
(-0.110475 -2.32871e-19 -0.037049)
(-0.0747767 -1.08785e-19 -0.0514166)
(-0.0641754 2.83383e-20 -0.0746895)
(-0.0589978 1.25328e-19 -0.0847551)
(-0.0487209 -6.95143e-20 -0.0993814)
(-0.0390174 5.34325e-20 -0.105419)
(-0.028495 5.88063e-20 -0.111729)
(-0.0185953 -4.0149e-19 -0.114102)
(-0.00917371 1.00309e-19 -0.115655)
(-0.0450113 -2.54385e-23 -0.000105067)
(-0.0453833 -4.43908e-22 -0.000312312)
(-0.045469 -7.82651e-21 -0.000523329)
(-0.0455532 -1.42481e-20 -0.000729326)
(-0.0456576 -3.50042e-20 -0.00093416)
(-0.0457924 2.0343e-20 -0.00113768)
(-0.0459651 1.43815e-21 -0.00133948)
(-0.0461799 1.53638e-20 -0.00153906)
(-0.0464374 1.79136e-19 -0.00173331)
(-0.0467349 -3.08701e-20 -0.00192146)
(-0.0470672 2.06932e-19 -0.00210961)
(-0.0474325 1.89797e-20 -0.00229498)
(-0.0478295 2.55715e-19 -0.00247695)
(-0.0482572 1.54569e-20 -0.00265552)
(-0.0487146 1.93507e-19 -0.00283012)
(-0.0492007 2.23434e-20 -0.00300008)
(-0.0497147 2.61928e-19 -0.00316474)
(-0.0502553 2.02786e-19 -0.00332339)
(-0.0508212 -2.15044e-19 -0.00347522)
(-0.0514112 2.77967e-19 -0.00361937)
(-0.0520237 2.64247e-19 -0.00375493)
(-0.0526572 2.13104e-19 -0.00388104)
(-0.05331 1.89001e-20 -0.00399677)
(-0.0539802 1.85832e-19 -0.00410118)
(-0.0546658 3.66659e-20 -0.00419324)
(-0.0553644 2.11827e-19 -0.0042719)
(-0.0560736 2.43796e-20 -0.00433605)
(-0.0567909 -1.98195e-19 -0.00438454)
(-0.0575134 2.84137e-19 -0.00441621)
(-0.0582382 2.70391e-19 -0.00442984)
(-0.0589619 2.54844e-19 -0.00442424)
(-0.0596812 2.39182e-20 -0.00439817)
(-0.0603925 2.20625e-19 -0.00435045)
(-0.0610918 -6.7014e-20 -0.0042799)
(-0.0617753 5.04575e-20 -0.00418537)
(-0.0624385 -8.12473e-21 -0.0040658)
(-0.0630771 3.70771e-20 -0.00392018)
(-0.0636864 -2.87527e-19 -0.00374764)
(-0.0642617 -4.82855e-20 -0.00354745)
(-0.0647979 5.10844e-20 -0.00331904)
(-0.0652899 -3.46435e-20 -0.00306206)
(-0.0657325 5.30642e-20 -0.00277635)
(-0.06612 -6.03104e-20 -0.00246198)
(-0.0664472 5.04006e-20 -0.0021192)
(-0.0667089 -6.62145e-20 -0.00174877)
(-0.0669005 2.30486e-19 -0.00135229)
(-0.0670174 4.81803e-20 -0.000931805)
(-0.0670556 -1.09964e-19 -0.000489267)
(-0.0670117 4.59859e-20 -2.62902e-05)
(-0.0668828 -9.53938e-20 0.000455575)
(-0.066666 6.28472e-20 0.00095385)
(-0.0663582 7.54859e-20 0.00146531)
(-0.0659564 5.90019e-20 0.00198647)
(-0.0654585 -7.12987e-20 0.00251368)
(-0.064863 -2.55171e-19 0.0030429)
(-0.0641696 5.30375e-20 0.00356976)
(-0.0633792 -2.62714e-20 0.00408965)
(-0.0624934 6.22698e-20 0.00459807)
(-0.0615147 -2.38324e-20 0.00509019)
(-0.0604464 6.93186e-20 0.00556077)
(-0.0592929 -7.40523e-21 0.00600476)
(-0.0580594 5.77642e-20 0.00641749)
(-0.0567522 -2.97434e-19 0.00679425)
(-0.0553781 5.14039e-21 0.00713056)
(-0.0539448 1.02785e-19 0.00742222)
(-0.0524605 4.64643e-20 0.00766523)
(-0.0509344 -3.33125e-20 0.00785587)
(-0.049376 -5.19251e-20 0.00799077)
(-0.0477956 2.18683e-19 0.00806697)
(-0.0462038 3.34773e-20 0.00808192)
(-0.0446121 2.25134e-20 0.00803362)
(-0.0430319 -6.65312e-20 0.00792061)
(-0.0414755 1.58998e-19 0.00774201)
(-0.0399554 -1.40052e-21 0.00749749)
(-0.0384845 7.70576e-21 0.00718735)
(-0.0370759 1.6298e-19 0.00681249)
(-0.0357426 -4.99192e-21 0.00637429)
(-0.0344952 4.0834e-20 0.00587348)
(-0.0333379 -8.32146e-20 0.00530769)
(-0.0322708 1.87576e-19 0.00467119)
(-0.0313018 -9.77368e-21 0.00396068)
(-0.0304484 6.7149e-20 0.00317749)
(-0.0297242 -5.21103e-20 0.00232192)
(-0.0291388 1.0794e-19 0.00139357)
(-0.0287028 7.13115e-20 0.000393294)
(-0.0284306 -2.64264e-20 -0.000679624)
(-0.0283337 1.25322e-19 -0.00183027)
(-0.0284262 -5.7687e-20 -0.00306394)
(-0.0287206 4.65674e-20 -0.00438578)
(-0.0292308 1.60405e-21 -0.00580126)
(-0.0299735 1.73008e-19 -0.00731578)
(-0.0309698 -1.57473e-20 -0.00893505)
(-0.0322463 -1.97846e-21 -0.0106617)
(-0.0338393 1.83222e-19 -0.012503)
(-0.0357953 -1.10397e-20 -0.0145184)
(-0.0381833 1.8554e-19 -0.0163607)
(-0.0412497 -4.11503e-20 -0.0192338)
(-0.0463737 6.64139e-20 -0.0202185)
(-0.0575493 -1.44214e-19 -0.0244747)
(-0.0886559 1.91639e-19 -0.0257925)
(-0.0876507 4.73783e-19 -0.0308062)
(-0.0965268 -4.70189e-19 -0.043426)
(-0.0565829 8.95262e-20 -0.0512315)
(-0.0491968 2.68526e-19 -0.0712268)
(-0.0466765 1.09921e-20 -0.0781565)
(-0.0396225 -3.18678e-19 -0.0909211)
(-0.0326826 -8.47118e-20 -0.0958762)
(-0.0246035 3.25465e-19 -0.101854)
(-0.0165788 1.1605e-19 -0.104424)
(-0.00838231 -2.93818e-19 -0.106319)
(-0.0447864 -1.42573e-23 -0.000122067)
(-0.0451571 -2.85254e-22 -0.000363058)
(-0.045244 -4.63188e-21 -0.00060895)
(-0.0453297 3.83741e-20 -0.000849446)
(-0.0454357 1.13198e-20 -0.00108884)
(-0.0455725 3.29511e-21 -0.00132678)
(-0.0457481 -6.42352e-21 -0.0015628)
(-0.0459673 8.38601e-21 -0.00179419)
(-0.0462303 -2.1771e-19 -0.00201749)
(-0.0465305 -2.20897e-19 -0.00223914)
(-0.0468654 -2.10966e-19 -0.00245934)
(-0.0472336 -6.81883e-21 -0.00267565)
(-0.0476341 -1.95792e-19 -0.00288829)
(-0.0480659 -2.46689e-19 -0.00309681)
(-0.0485281 -2.37904e-19 -0.00330051)
(-0.0490197 5.33846e-20 -0.00349864)
(-0.0495399 -2.47577e-19 -0.00369045)
(-0.0500875 -2.46353e-19 -0.00387511)
(-0.0506613 -3.92161e-21 -0.00405172)
(-0.0512601 -2.03271e-19 -0.00421931)
(-0.0518824 -2.16561e-19 -0.00437687)
(-0.0525267 -2.33381e-19 -0.00452336)
(-0.0531913 8.11017e-22 -0.00465771)
(-0.0538744 -2.82649e-19 -0.00477878)
(-0.0545739 1.75674e-20 -0.00488538)
(-0.0552877 -2.88855e-19 -0.00497626)
(-0.0560134 5.22789e-19 -0.00505013)
(-0.0567483 9.59749e-20 -0.00510565)
(-0.0574898 -2.11784e-19 -0.00514144)
(-0.0582347 -2.43836e-19 -0.0051561)
(-0.0589801 -2.49682e-19 -0.00514819)
(-0.0597223 -2.80453e-21 -0.00511629)
(-0.0604577 -2.92627e-19 -0.00505898)
(-0.0611825 -3.61395e-20 -0.00497489)
(-0.0618926 5.81807e-19 -0.00486267)
(-0.0625836 4.29904e-20 -0.00472106)
(-0.0632509 5.63567e-19 -0.00454891)
(-0.0638899 4.9461e-21 -0.00434518)
(-0.0644955 2.20581e-20 -0.00410902)
(-0.0650625 5.99738e-19 -0.00383977)
(-0.0655857 4.50864e-20 -0.00353701)
(-0.0660593 6.55611e-19 -0.00320056)
(-0.0664777 4.46299e-20 -0.00283051)
(-0.0668354 6.21405e-19 -0.00242722)
(-0.0671268 7.14231e-21 -0.00199144)
(-0.0673467 -3.65218e-19 -0.0015243)
(-0.0674904 6.5784e-19 -0.00102739)
(-0.0675533 4.53054e-20 -0.000502577)
(-0.0675316 6.53419e-19 4.79485e-05)
(-0.0674218 4.48831e-20 0.000621608)
(-0.0672207 6.71354e-19 0.0012149)
(-0.0669248 7.15218e-19 0.00182398)
(-0.0665311 6.81302e-19 0.00244467)
(-0.0660371 1.03057e-20 0.00307258)
(-0.065441 8.49516e-20 0.00370294)
(-0.0647423 6.10504e-19 0.00433066)
(-0.0639416 1.84615e-20 0.00495037)
(-0.0630403 5.8044e-19 0.00555638)
(-0.0620406 3.82703e-20 0.00614264)
(-0.0609457 6.03421e-19 0.00670299)
(-0.0597602 4.63846e-20 0.00723148)
(-0.0584899 5.69392e-19 0.0077224)
(-0.0571408 -4.25008e-20 0.00817003)
(-0.0557201 8.16289e-21 0.00856913)
(-0.0542358 5.62305e-19 0.00891494)
(-0.0526965 5.5653e-19 0.00920301)
(-0.0511115 -2.94306e-20 0.00942927)
(-0.0494909 -4.31308e-20 0.00958997)
(-0.0478453 -1.79238e-19 0.00968179)
(-0.0461861 2.11581e-21 0.00970187)
(-0.0445249 5.18755e-20 0.00964796)
(-0.0428741 -1.08088e-19 0.00951842)
(-0.0412464 -2.05546e-19 0.0093123)
(-0.0396551 3.45655e-20 0.00902923)
(-0.0381135 3.89117e-20 0.00866945)
(-0.0366353 -2.43741e-19 0.00823366)
(-0.0352329 2.39173e-20 0.00772254)
(-0.0339146 4.51292e-20 0.00713537)
(-0.0326823 -5.15896e-20 0.00646893)
(-0.0315376 -1.49248e-19 0.00572016)
(-0.0304922 -1.41702e-20 0.00489002)
(-0.0295628 4.37563e-20 0.00398038)
(-0.0287618 -4.23296e-20 0.0029902)
(-0.0280991 -1.7373e-19 0.00191827)
(-0.0275849 4.09681e-20 0.000763677)
(-0.0272316 -8.06784e-21 -0.000473923)
(-0.0270491 -1.83128e-19 -0.00179966)
(-0.0270497 -7.47008e-20 -0.00322176)
(-0.0272456 4.61658e-20 -0.00474618)
(-0.0276501 -2.60464e-20 -0.00638105)
(-0.0282795 -1.77358e-19 -0.00813556)
(-0.0291544 6.6229e-20 -0.0100202)
(-0.030301 -7.61761e-20 -0.0120436)
(-0.0317544 -1.41865e-19 -0.0142267)
(-0.0335586 -6.92028e-20 -0.0166094)
(-0.0357765 -1.24975e-19 -0.0189135)
(-0.0387255 -3.15267e-20 -0.022332)
(-0.0437099 -2.93433e-19 -0.0237553)
(-0.0548181 -2.42108e-19 -0.029291)
(-0.0824714 1.50407e-19 -0.0308821)
(-0.0826423 6.09685e-18 -0.0369098)
(-0.086119 -3.878e-19 -0.0496642)
(-0.0447134 -1.08736e-19 -0.0525253)
(-0.038261 1.24537e-19 -0.0691836)
(-0.037357 2.49609e-20 -0.0735965)
(-0.0320654 -2.91562e-19 -0.0845229)
(-0.0270224 -3.54664e-20 -0.0884765)
(-0.0206749 4.36685e-19 -0.0938652)
(-0.0142088 -2.91255e-19 -0.0963635)
(-0.00729539 -1.71854e-19 -0.0982891)
(-0.0445274 -2.62644e-24 -0.000139415)
(-0.0448963 1.11846e-22 -0.000414767)
(-0.0449842 3.47829e-21 -0.00069606)
(-0.0450713 2.22126e-19 -0.00097155)
(-0.0451789 1.26821e-20 -0.00124604)
(-0.0453181 -8.77868e-21 -0.00151915)
(-0.0454984 1.39786e-21 -0.001789)
(-0.0457245 1.01994e-20 -0.00204914)
(-0.045991 2.08429e-19 -0.00230505)
(-0.0462939 -3.66174e-20 -0.002561)
(-0.0466316 2.06976e-19 -0.00281307)
(-0.0470034 3.1294e-20 -0.0030612)
(-0.0474082 2.03308e-19 -0.00330514)
(-0.0478449 -2.79083e-20 -0.00354419)
(-0.0483126 2.17808e-19 -0.00377762)
(-0.0488107 3.61415e-20 -0.00400462)
(-0.0493381 2.28327e-19 -0.00422431)
(-0.0498939 2.12176e-19 -0.00443579)